<?xml version="1.0" ?>
<VTKFile byte_order="LittleEndian" type="UnstructuredGrid" version="0.1">
<UnstructuredGrid>
<Piece NumberOfCells="75" NumberOfPoints="49">
<Points>
<DataArray Name="vertices" NumberOfComponents="3" format="ascii" type="Float32">-2 0 0 -0.5 0 0 -1.87939 0.68404 0 -1.53209 1.28557 0 -1 1.73205 0 -0.347296 1.96962 0 0.347296 1.96962 0 1 1.73205 0 1.53209 1.28557 0 1.87939 0.68404 0 2 2.44929e-16 0 1.87939 -0.68404 0 1.53209 -1.28557 0 1 -1.73205 0 0.347296 -1.96962 0 -0.347296 -1.96962 0 -1 -1.73205 0 -1.53209 -1.28557 0 -1.87939 -0.68404 0 -0.154508 0.475528 0 0.404508 0.293893 0 0.404508 -0.293893 0 -0.154508 -0.475528 0 -1.37874 -0.347539 0 1.38026 -0.327568 0 0.54439 -1.4012 0 -0.551281 -1.41703 0 -0.60358 0.714985 0 0.692731 0.797835 0 1.52246 0.274017 0 1.4651 -0.822278 0 1.00286 -0.964422 0 -1.52198 0.259348 0 -1.0065 -0.98813 0 -1.46429 -0.829348 0 -0.00551526 -1.43234 0 -0.353543 -0.928807 0 -0.72972 -0.415832 0 0.315062 -0.839643 0 0.747552 -0.316806 0 -1.00678 0.173818 0 -1.26331 0.738848 0 -0.951739 1.19929 0 -0.302771 1.40575 0 1.00693 0.249289 0 1.27733 0.761698 0 0.451435 1.34034 0 0.989293 1.20392 0 0.0693771 0.843549 0 </DataArray>
</Points>
<Cells>
<DataArray Name="connectivity" format="ascii" type="Int32">9 29 10 29 24 10 31 30 24 31 25 13 11 30 12 30 31 12 13 12 31 25 14 13 30 11 24 10 24 11 0 32 2 32 0 23 18 23 0 34 33 23 16 26 33 34 17 33 33 17 16 17 34 18 34 23 18 35 26 15 26 16 15 25 35 14 35 15 14 36 33 26 37 23 33 33 36 37 1 19 27 37 36 22 36 38 22 31 38 25 39 21 38 24 39 31 38 31 39 35 25 38 26 35 36 38 36 35 40 32 23 27 41 40 41 3 2 32 41 2 32 40 41 43 42 27 42 43 4 4 43 5 41 27 42 29 44 24 42 4 3 41 42 3 45 28 44 44 29 45 45 29 9 47 46 28 47 7 46 43 46 6 6 46 7 47 8 7 28 45 47 6 5 43 47 45 8 45 9 8 48 28 46 27 48 43 46 43 48 39 24 44 44 28 20 28 48 20 44 20 39 22 38 21 39 20 21 23 37 40 27 40 1 40 37 1 37 22 1 20 48 19 48 27 19 </DataArray>
<DataArray Name="offsets" format="ascii" type="Int32">3 6 9 12 15 18 21 24 27 30 33 36 39 42 45 48 51 54 57 60 63 66 69 72 75 78 81 84 87 90 93 96 99 102 105 108 111 114 117 120 123 126 129 132 135 138 141 144 147 150 153 156 159 162 165 168 171 174 177 180 183 186 189 192 195 198 201 204 207 210 213 216 219 222 225 </DataArray>
<DataArray Name="types" format="ascii" type="UInt8">5 5 5 5 5 5 5 5 5 5 5 5 5 5 5 5 5 5 5 5 5 5 5 5 5 5 5 5 5 5 5 5 5 5 5 5 5 5 5 5 5 5 5 5 5 5 5 5 5 5 5 5 5 5 5 5 5 5 5 5 5 5 5 5 5 5 5 5 5 5 5 5 5 5 5 </DataArray>
</Cells>
<PointData>
<DataArray Name="Uz 0" NumberOfComponents="1" format="ascii" type="Float32">0 0 0.68404 1.28557 1.73205 1.96962 1.96962 1.73205 1.28557 0.68404 2.44929e-16 -0.68404 -1.28557 -1.73205 -1.96962 -1.96962 -1.73205 -1.28557 -0.68404 0.475528 0.293893 -0.293893 -0.475528 -0.347539 -0.327568 -1.4012 -1.41703 0.714985 0.797835 0.274017 -0.822278 -0.964422 0.259348 -0.98813 -0.829348 -1.43234 -0.928807 -0.415832 -0.839643 -0.316806 0.173818 0.738848 1.19929 1.40575 0.249289 0.761698 1.34034 1.20392 0.843549 </DataArray>
</PointData>
<CellData/>
</Piece>
</UnstructuredGrid>
</VTKFile>
