<?xml version="1.0" ?>
<VTKFile byte_order="LittleEndian" type="UnstructuredGrid" version="0.1">
<UnstructuredGrid>
<Piece NumberOfCells="80" NumberOfPoints="49">
<Points>
<DataArray Name="vertices" NumberOfComponents="3" format="ascii" type="Float32">6.66134e-16 0.2 0 2 0.2 0 2.08227 2.16454 0 0.0836348 2.23338 0 0.5 0.2 0 1 0.2 0 1.5 0.2 0 2.01621 0.684561 0 2.03345 1.17465 0 2.05482 1.66797 0 1.57857 2.18543 0 1.07685 2.19918 0 0.57892 2.21272 0 0.0560348 1.73095 0 0.0344432 1.2248 0 0.0169246 0.715164 0 1.75009 0.955868 0 0.295517 0.981278 0 0.686022 0.420994 0 1.3202 0.418915 0 1.02073 0.979544 0 1.40729 1.59199 0 0.689461 1.60939 0 0.236508 1.37284 0 0.214449 0.596916 0 0.493589 0.672365 0 0.363522 0.410869 0 1.84139 1.33294 0 1.5288 0.663393 0 1.80447 0.582759 0 1.6439 0.405745 0 1.00419 0.46164 0 1.18427 0.685736 0 1.38176 0.974687 0 0.836101 0.689729 0 0.660958 0.985157 0 1.56326 1.28954 0 1.72751 1.60401 0 1.82247 1.89502 0 1.57112 1.84208 0 1.25944 1.89485 0 0.507042 1.31228 0 0.372745 1.64055 0 0.864714 1.90507 0 0.548685 1.86998 0 0.310085 1.93957 0 1.04801 1.60149 0 0.854227 1.29615 0 1.21388 1.28924 0 </DataArray>
</Points>
<Cells>
<DataArray Name="connectivity" format="ascii" type="Int32">13 23 14 23 17 14 25 24 17 0 15 24 18 26 25 24 25 26 26 18 4 0 26 4 24 26 0 24 15 17 14 17 15 27 8 16 7 16 8 29 28 16 30 19 28 28 29 30 5 19 6 6 30 1 19 30 6 29 7 1 1 30 29 29 16 7 18 31 5 32 28 19 5 4 18 31 19 5 33 16 28 20 33 32 28 32 33 25 34 18 35 20 34 17 35 25 34 25 35 32 34 20 31 18 34 19 31 32 34 32 31 36 27 16 37 9 27 21 37 36 27 36 37 9 38 2 40 39 21 10 40 11 39 10 38 39 40 10 2 38 10 37 21 39 39 38 37 8 27 9 37 38 9 23 41 17 42 22 41 41 23 42 44 43 22 44 12 43 11 43 12 3 45 13 3 12 45 44 45 12 22 42 44 42 23 13 45 42 13 45 44 42 46 22 43 40 43 11 21 46 40 43 40 46 47 41 22 35 17 41 20 35 47 41 47 35 36 48 21 33 20 48 16 33 36 48 36 33 47 48 20 46 21 48 22 46 47 48 47 46 </DataArray>
<DataArray Name="offsets" format="ascii" type="Int32">3 6 9 12 15 18 21 24 27 30 33 36 39 42 45 48 51 54 57 60 63 66 69 72 75 78 81 84 87 90 93 96 99 102 105 108 111 114 117 120 123 126 129 132 135 138 141 144 147 150 153 156 159 162 165 168 171 174 177 180 183 186 189 192 195 198 201 204 207 210 213 216 219 222 225 228 231 234 237 240 </DataArray>
<DataArray Name="types" format="ascii" type="UInt8">5 5 5 5 5 5 5 5 5 5 5 5 5 5 5 5 5 5 5 5 5 5 5 5 5 5 5 5 5 5 5 5 5 5 5 5 5 5 5 5 5 5 5 5 5 5 5 5 5 5 5 5 5 5 5 5 5 5 5 5 5 5 5 5 5 5 5 5 5 5 5 5 5 5 5 5 5 5 5 5 </DataArray>
</Cells>
<PointData>
<DataArray Name="Uz 0" NumberOfComponents="1" format="ascii" type="Float32">-0.375042 -0.463645 -0.639134 -0.471161 -0.513595 -0.225479 -0.299192 -0.651635 -0.461496 -0.66051 -0.535801 -0.538947 -0.299502 -0.395193 -0.556273 -0.724579 -0.570342 -0.543485 -0.467144 -0.296839 -0.465408 -0.448936 -0.370322 -0.542453 -0.521425 0.0369883 0.245732 -0.131978 0.284909 0.101461 -0.189493 0.401764 0.510918 0.173186 -0.0514318 0.0146546 0.374355 -0.029845 0.0343333 0.303662 -0.0102266 0.0119241 0.0076748 -0.0445372 0.0708256 0.0544697 -0.0411382 0.183791 0.0171953 </DataArray>
<DataArray Name="Uz 1" NumberOfComponents="1" format="ascii" type="Float32">-0.637875 -0.681637 -0.598456 -0.42539 -0.370614 -0.364138 -0.540919 -0.466938 -0.419744 -0.501128 -0.533951 -0.527389 -0.50047 -0.356175 -0.637774 -0.551624 -0.53527 -0.525884 -0.322809 -0.38486 -0.539002 -0.39438 -0.470949 -0.535668 0.233177 -0.00471681 -0.143107 -0.278019 0.221636 -0.0795281 -0.0421309 0.641862 0.182449 -0.0335105 0.0087825 0.0227551 0.237752 -0.115168 0.0640803 0.0928631 0.0274964 -0.0106257 -0.0178134 0.0313372 -0.0270776 0.0700116 0.0534643 0.0131011 0.00528691 </DataArray>
</PointData>
<CellData/>
</Piece>
</UnstructuredGrid>
</VTKFile>
