<?xml version="1.0" ?>
<VTKFile byte_order="LittleEndian" type="UnstructuredGrid" version="0.1">
<UnstructuredGrid>
<Piece NumberOfCells="80" NumberOfPoints="49">
<Points>
<DataArray Name="vertices" NumberOfComponents="3" format="ascii" type="Float32">6.66134e-16 0.2 0 2 0.2 0 2.08227 2.16454 0 0.0836348 2.23338 0 0.5 0.2 0 1 0.2 0 1.5 0.2 0 2.01621 0.684561 0 2.03345 1.17465 0 2.05482 1.66797 0 1.57857 2.18543 0 1.07685 2.19918 0 0.57892 2.21272 0 0.0560348 1.73095 0 0.0344432 1.2248 0 0.0169246 0.715164 0 1.75009 0.955868 0 0.295517 0.981278 0 0.686022 0.420994 0 1.3202 0.418915 0 1.02073 0.979544 0 1.40729 1.59199 0 0.689461 1.60939 0 0.236508 1.37284 0 0.214449 0.596916 0 0.493589 0.672365 0 0.363522 0.410869 0 1.84139 1.33294 0 1.5288 0.663393 0 1.80447 0.582759 0 1.6439 0.405745 0 1.00419 0.46164 0 1.18427 0.685736 0 1.38176 0.974687 0 0.836101 0.689729 0 0.660958 0.985157 0 1.56326 1.28954 0 1.72751 1.60401 0 1.82247 1.89502 0 1.57112 1.84208 0 1.25944 1.89485 0 0.507042 1.31228 0 0.372745 1.64055 0 0.864714 1.90507 0 0.548685 1.86998 0 0.310085 1.93957 0 1.04801 1.60149 0 0.854227 1.29615 0 1.21388 1.28924 0 </DataArray>
</Points>
<Cells>
<DataArray Name="connectivity" format="ascii" type="Int32">13 23 14 23 17 14 25 24 17 0 15 24 18 26 25 24 25 26 26 18 4 0 26 4 24 26 0 24 15 17 14 17 15 27 8 16 7 16 8 29 28 16 30 19 28 28 29 30 5 19 6 6 30 1 19 30 6 29 7 1 1 30 29 29 16 7 18 31 5 32 28 19 5 4 18 31 19 5 33 16 28 20 33 32 28 32 33 25 34 18 35 20 34 17 35 25 34 25 35 32 34 20 31 18 34 19 31 32 34 32 31 36 27 16 37 9 27 21 37 36 27 36 37 9 38 2 40 39 21 10 40 11 39 10 38 39 40 10 2 38 10 37 21 39 39 38 37 8 27 9 37 38 9 23 41 17 42 22 41 41 23 42 44 43 22 44 12 43 11 43 12 3 45 13 3 12 45 44 45 12 22 42 44 42 23 13 45 42 13 45 44 42 46 22 43 40 43 11 21 46 40 43 40 46 47 41 22 35 17 41 20 35 47 41 47 35 36 48 21 33 20 48 16 33 36 48 36 33 47 48 20 46 21 48 22 46 47 48 47 46 </DataArray>
<DataArray Name="offsets" format="ascii" type="Int32">3 6 9 12 15 18 21 24 27 30 33 36 39 42 45 48 51 54 57 60 63 66 69 72 75 78 81 84 87 90 93 96 99 102 105 108 111 114 117 120 123 126 129 132 135 138 141 144 147 150 153 156 159 162 165 168 171 174 177 180 183 186 189 192 195 198 201 204 207 210 213 216 219 222 225 228 231 234 237 240 </DataArray>
<DataArray Name="types" format="ascii" type="UInt8">5 5 5 5 5 5 5 5 5 5 5 5 5 5 5 5 5 5 5 5 5 5 5 5 5 5 5 5 5 5 5 5 5 5 5 5 5 5 5 5 5 5 5 5 5 5 5 5 5 5 5 5 5 5 5 5 5 5 5 5 5 5 5 5 5 5 5 5 5 5 5 5 5 5 5 5 5 5 5 5 </DataArray>
</Cells>
<PointData>
<DataArray Name="Uz 0" NumberOfComponents="1" format="ascii" type="Float32">-97116.2 -225516 -306773 -206897 -260743 -98763.7 -152360 -344254 -238261 -366630 -280563 -285080 -112853 -177820 -298930 -472247 -302316 -283925 -243410 -143677 -241884 -241226 -192282 -285392 -272329 253676 304668 11699.1 260336 139599 -37077.1 515822 520324 172397 34341.2 74278.1 444619 44514.4 71591 349611 59865.5 68258.9 66999.9 12031 88086 108297 29590.6 202113 74472.5 </DataArray>
<DataArray Name="Uz 1" NumberOfComponents="1" format="ascii" type="Float32">-448474 -361679 -316644 -219408 -184542 -175436 -292474 -179831 -209863 -249352 -282272 -284383 -261282 -176535 -428220 -304502 -281426 -274660 -164349 -201907 -285895 -203598 -245231 -281066 355809 112732 5776.51 -55669.8 237978 1559.05 16810.9 698424 182349 57626 66238.3 79980 274437 -2646.76 103193 245578 77370.4 53630.8 47048 84549.9 48687 109116 74693 71157.6 63702.5 </DataArray>
</PointData>
<CellData/>
</Piece>
</UnstructuredGrid>
</VTKFile>
