<?xml version="1.0" ?>
<VTKFile byte_order="LittleEndian" type="UnstructuredGrid" version="0.1">
<UnstructuredGrid>
<Piece NumberOfCells="80" NumberOfPoints="49">
<Points>
<DataArray Name="vertices" NumberOfComponents="3" format="ascii" type="Float32">6.66134e-16 0.18 0 2 0.18 0 2.07411 2.14818 0 0.0752138 2.21014 0 0.5 0.18 0 1 0.18 0 1.5 0.18 0 2.01463 0.666116 0 2.03015 1.15721 0 2.0494 1.65122 0 1.57073 2.16697 0 1.06917 2.17934 0 0.571015 2.19153 0 0.0503782 1.70791 0 0.0309548 1.20235 0 0.0152008 0.693661 0 1.74786 0.937141 0 0.293181 0.960024 0 0.685695 0.400883 0 1.31989 0.399014 0 1.01866 0.959542 0 1.40244 1.57288 0 0.684566 1.58863 0 0.232535 1.35091 0 0.213409 0.576184 0 0.49251 0.651888 0 0.363137 0.390601 0 1.83756 1.31498 0 1.52777 0.643857 0 1.8035 0.563491 0 1.64355 0.386007 0 1.00377 0.441632 0 1.18324 0.665865 0 1.37964 0.955205 0 0.83506 0.66958 0 0.658809 0.964639 0 1.55976 1.27068 0 1.72251 1.58586 0 1.81593 1.87738 0 1.56496 1.82352 0 1.25313 1.87543 0 0.503477 1.29119 0 0.367635 1.61886 0 0.858372 1.88471 0 0.542457 1.84876 0 0.303418 1.91748 0 1.04316 1.58155 0 0.850816 1.27584 0 1.21048 1.2696 0 </DataArray>
</Points>
<Cells>
<DataArray Name="connectivity" format="ascii" type="Int32">13 23 14 23 17 14 25 24 17 0 15 24 18 26 25 24 25 26 26 18 4 0 26 4 24 26 0 24 15 17 14 17 15 27 8 16 7 16 8 29 28 16 30 19 28 28 29 30 5 19 6 6 30 1 19 30 6 29 7 1 1 30 29 29 16 7 18 31 5 32 28 19 5 4 18 31 19 5 33 16 28 20 33 32 28 32 33 25 34 18 35 20 34 17 35 25 34 25 35 32 34 20 31 18 34 19 31 32 34 32 31 36 27 16 37 9 27 21 37 36 27 36 37 9 38 2 40 39 21 10 40 11 39 10 38 39 40 10 2 38 10 37 21 39 39 38 37 8 27 9 37 38 9 23 41 17 42 22 41 41 23 42 44 43 22 44 12 43 11 43 12 3 45 13 3 12 45 44 45 12 22 42 44 42 23 13 45 42 13 45 44 42 46 22 43 40 43 11 21 46 40 43 40 46 47 41 22 35 17 41 20 35 47 41 47 35 36 48 21 33 20 48 16 33 36 48 36 33 47 48 20 46 21 48 22 46 47 48 47 46 </DataArray>
<DataArray Name="offsets" format="ascii" type="Int32">3 6 9 12 15 18 21 24 27 30 33 36 39 42 45 48 51 54 57 60 63 66 69 72 75 78 81 84 87 90 93 96 99 102 105 108 111 114 117 120 123 126 129 132 135 138 141 144 147 150 153 156 159 162 165 168 171 174 177 180 183 186 189 192 195 198 201 204 207 210 213 216 219 222 225 228 231 234 237 240 </DataArray>
<DataArray Name="types" format="ascii" type="UInt8">5 5 5 5 5 5 5 5 5 5 5 5 5 5 5 5 5 5 5 5 5 5 5 5 5 5 5 5 5 5 5 5 5 5 5 5 5 5 5 5 5 5 5 5 5 5 5 5 5 5 5 5 5 5 5 5 5 5 5 5 5 5 5 5 5 5 5 5 5 5 5 5 5 5 5 5 5 5 5 5 </DataArray>
</Cells>
<PointData>
<DataArray Name="Uz 0" NumberOfComponents="1" format="ascii" type="Float32">0 0 0.0741064 0.0752138 0 0 0 0.014625 0.0301534 0.0493955 0.0707303 0.0691663 0.071015 0.0503782 0.0309548 0.0152008 0.0203556 0.0207853 0.00289848 0.00283637 0.018627 0.0437683 0.0439701 0.0354429 0.0091828 0.0095841 0.00337893 0.0348636 0.00939106 0.00885802 0.00324604 0.0037537 0.00924197 0.0190896 0.00933551 0.0192529 0.0316147 0.0452773 0.0591349 0.0555683 0.0569177 0.0319207 0.0457574 0.0570431 0.0559107 0.0597057 0.0436162 0.0306534 0.030572 </DataArray>
<DataArray Name="Uz 1" NumberOfComponents="1" format="ascii" type="Float32">0.18 0.18 0.14818 0.210138 0.18 0.18 0.18 0.166116 0.157206 0.151217 0.166973 0.179335 0.191529 0.207907 0.202347 0.193661 0.168581 0.191338 0.180971 0.179079 0.180011 0.172308 0.187156 0.197632 0.186597 0.184262 0.182394 0.161941 0.175782 0.173409 0.177625 0.180033 0.178795 0.175342 0.181297 0.184664 0.169806 0.163766 0.15937 0.167568 0.175299 0.189958 0.195609 0.183793 0.191574 0.19948 0.179739 0.182934 0.176873 </DataArray>
</PointData>
<CellData/>
</Piece>
</UnstructuredGrid>
</VTKFile>
