<?xml version="1.0" ?>
<VTKFile byte_order="LittleEndian" type="UnstructuredGrid" version="0.1">
<UnstructuredGrid>
<Piece NumberOfCells="80" NumberOfPoints="49">
<Points>
<DataArray Name="vertices" NumberOfComponents="3" format="ascii" type="Float32">6.66134e-16 0.16 0 2 0.16 0 2.06593 2.1318 0 0.0668053 2.18687 0 0.5 0.16 0 1 0.16 0 1.5 0.16 0 2.01303 0.647669 0 2.02684 1.13976 0 2.04396 1.63446 0 1.56289 2.14849 0 1.06148 2.15947 0 0.563113 2.17032 0 0.0447333 1.68485 0 0.0274762 1.17989 0 0.013484 0.672155 0 1.74562 0.918413 0 0.29085 0.938769 0 0.68537 0.380773 0 1.31958 0.379113 0 1.01659 0.939539 0 1.39758 1.55376 0 0.679673 1.56786 0 0.228569 1.32898 0 0.212372 0.555452 0 0.491435 0.631411 0 0.362755 0.370335 0 1.83371 1.297 0 1.52673 0.624323 0 1.80253 0.544223 0 1.64319 0.36627 0 1.00336 0.421625 0 1.18222 0.645994 0 1.37753 0.935722 0 0.834019 0.649431 0 0.656661 0.944121 0 1.55626 1.25183 0 1.7175 1.56769 0 1.80939 1.85973 0 1.5588 1.80495 0 1.24681 1.856 0 0.499915 1.2701 0 0.36253 1.59716 0 0.852031 1.86434 0 0.536232 1.82752 0 0.296757 1.89537 0 1.03832 1.56161 0 0.847406 1.25552 0 1.20709 1.24996 0 </DataArray>
</Points>
<Cells>
<DataArray Name="connectivity" format="ascii" type="Int32">13 23 14 23 17 14 25 24 17 0 15 24 18 26 25 24 25 26 26 18 4 0 26 4 24 26 0 24 15 17 14 17 15 27 8 16 7 16 8 29 28 16 30 19 28 28 29 30 5 19 6 6 30 1 19 30 6 29 7 1 1 30 29 29 16 7 18 31 5 32 28 19 5 4 18 31 19 5 33 16 28 20 33 32 28 32 33 25 34 18 35 20 34 17 35 25 34 25 35 32 34 20 31 18 34 19 31 32 34 32 31 36 27 16 37 9 27 21 37 36 27 36 37 9 38 2 40 39 21 10 40 11 39 10 38 39 40 10 2 38 10 37 21 39 39 38 37 8 27 9 37 38 9 23 41 17 42 22 41 41 23 42 44 43 22 44 12 43 11 43 12 3 45 13 3 12 45 44 45 12 22 42 44 42 23 13 45 42 13 45 44 42 46 22 43 40 43 11 21 46 40 43 40 46 47 41 22 35 17 41 20 35 47 41 47 35 36 48 21 33 20 48 16 33 36 48 36 33 47 48 20 46 21 48 22 46 47 48 47 46 </DataArray>
<DataArray Name="offsets" format="ascii" type="Int32">3 6 9 12 15 18 21 24 27 30 33 36 39 42 45 48 51 54 57 60 63 66 69 72 75 78 81 84 87 90 93 96 99 102 105 108 111 114 117 120 123 126 129 132 135 138 141 144 147 150 153 156 159 162 165 168 171 174 177 180 183 186 189 192 195 198 201 204 207 210 213 216 219 222 225 228 231 234 237 240 </DataArray>
<DataArray Name="types" format="ascii" type="UInt8">5 5 5 5 5 5 5 5 5 5 5 5 5 5 5 5 5 5 5 5 5 5 5 5 5 5 5 5 5 5 5 5 5 5 5 5 5 5 5 5 5 5 5 5 5 5 5 5 5 5 5 5 5 5 5 5 5 5 5 5 5 5 5 5 5 5 5 5 5 5 5 5 5 5 5 5 5 5 5 5 </DataArray>
</Cells>
<PointData>
<DataArray Name="Uz 0" NumberOfComponents="1" format="ascii" type="Float32">0.273247 0.340788 0.709329 0.864286 0.039968 0.290024 0.245303 -0.0658378 0.0869909 0.513385 0.27984 0.273655 0.0134749 0.432573 0.238053 0.599338 0.291224 0.314575 0.250038 0.181814 0.308603 0.188726 0.133828 0.283177 0.268681 -0.6406 -0.684073 -0.599663 -0.428344 -0.372352 -0.364236 -0.543606 -0.46907 -0.421479 -0.502888 -0.535681 -0.529613 -0.501896 -0.357477 -0.641171 -0.553366 -0.537252 -0.527599 -0.323648 -0.386858 -0.540448 -0.395869 -0.473137 -0.537659 </DataArray>
<DataArray Name="Uz 1" NumberOfComponents="1" format="ascii" type="Float32">0.677767 0.202525 0.699554 0.00783956 0.0753753 0.480226 0.0339104 -0.108827 0.0794031 0.402694 0.274912 0.0581549 0.310247 0.104465 0.226912 0.383293 0.272782 0.276248 0.189873 0.150473 0.237639 0.285638 0.0956896 0.271354 -0.377494 -0.464111 -0.640396 -0.472379 -0.5161 -0.225912 -0.300265 -0.654947 -0.463855 -0.661874 -0.53797 -0.540661 -0.301535 -0.396706 -0.558561 -0.727242 -0.572558 -0.545402 -0.468531 -0.297847 -0.466834 -0.450273 -0.372247 -0.5445 -0.523466 </DataArray>
</PointData>
<CellData/>
</Piece>
</UnstructuredGrid>
</VTKFile>
