<?xml version="1.0" ?>
<VTKFile byte_order="LittleEndian" type="UnstructuredGrid" version="0.1">
<UnstructuredGrid>
<Piece NumberOfCells="80" NumberOfPoints="49">
<Points>
<DataArray Name="vertices" NumberOfComponents="3" format="ascii" type="Float32">6.66134e-16 0.14 0 2 0.14 0 2.05774 2.11539 0 0.0584092 2.16359 0 0.5 0.14 0 1 0.14 0 1.5 0.14 0 2.01143 0.629219 0 2.02352 1.12231 0 2.03851 1.61769 0 1.55504 2.13 0 1.0538 2.1396 0 0.555213 2.1491 0 0.0391001 1.66178 0 0.0240073 1.15742 0 0.011774 0.650646 0 1.74337 0.899684 0 0.288524 0.917513 0 0.685045 0.360663 0 1.31926 0.359214 0 1.01452 0.919537 0 1.39273 1.53463 0 0.674781 1.54708 0 0.22461 1.30703 0 0.211339 0.534719 0 0.490362 0.610936 0 0.362374 0.350068 0 1.82986 1.27903 0 1.5257 0.604789 0 1.80156 0.524956 0 1.64284 0.346533 0 1.00294 0.401619 0 1.18119 0.626125 0 1.37542 0.916239 0 0.832979 0.629284 0 0.654516 0.923602 0 1.55276 1.23297 0 1.71248 1.54952 0 1.80285 1.84206 0 1.55264 1.78637 0 1.24049 1.83656 0 0.496358 1.249 0 0.35743 1.57545 0 0.84569 1.84395 0 0.53001 1.80627 0 0.290103 1.87325 0 1.03347 1.54166 0 0.843998 1.23521 0 1.2037 1.23031 0 </DataArray>
</Points>
<Cells>
<DataArray Name="connectivity" format="ascii" type="Int32">13 23 14 23 17 14 25 24 17 0 15 24 18 26 25 24 25 26 26 18 4 0 26 4 24 26 0 24 15 17 14 17 15 27 8 16 7 16 8 29 28 16 30 19 28 28 29 30 5 19 6 6 30 1 19 30 6 29 7 1 1 30 29 29 16 7 18 31 5 32 28 19 5 4 18 31 19 5 33 16 28 20 33 32 28 32 33 25 34 18 35 20 34 17 35 25 34 25 35 32 34 20 31 18 34 19 31 32 34 32 31 36 27 16 37 9 27 21 37 36 27 36 37 9 38 2 40 39 21 10 40 11 39 10 38 39 40 10 2 38 10 37 21 39 39 38 37 8 27 9 37 38 9 23 41 17 42 22 41 41 23 42 44 43 22 44 12 43 11 43 12 3 45 13 3 12 45 44 45 12 22 42 44 42 23 13 45 42 13 45 44 42 46 22 43 40 43 11 21 46 40 43 40 46 47 41 22 35 17 41 20 35 47 41 47 35 36 48 21 33 20 48 16 33 36 48 36 33 47 48 20 46 21 48 22 46 47 48 47 46 </DataArray>
<DataArray Name="offsets" format="ascii" type="Int32">3 6 9 12 15 18 21 24 27 30 33 36 39 42 45 48 51 54 57 60 63 66 69 72 75 78 81 84 87 90 93 96 99 102 105 108 111 114 117 120 123 126 129 132 135 138 141 144 147 150 153 156 159 162 165 168 171 174 177 180 183 186 189 192 195 198 201 204 207 210 213 216 219 222 225 228 231 234 237 240 </DataArray>
<DataArray Name="types" format="ascii" type="UInt8">5 5 5 5 5 5 5 5 5 5 5 5 5 5 5 5 5 5 5 5 5 5 5 5 5 5 5 5 5 5 5 5 5 5 5 5 5 5 5 5 5 5 5 5 5 5 5 5 5 5 5 5 5 5 5 5 5 5 5 5 5 5 5 5 5 5 5 5 5 5 5 5 5 5 5 5 5 5 5 5 </DataArray>
</Cells>
<PointData>
<DataArray Name="Uz 0" NumberOfComponents="1" format="ascii" type="Float32">0.275071 0.342683 0.710398 0.865058 0.0420709 0.290302 0.247093 -0.0616258 0.0883833 0.514833 0.281902 0.276377 0.0156895 0.433784 0.239457 0.600843 0.292881 0.316399 0.251691 0.18299 0.310439 0.191408 0.136038 0.285646 0.270806 -0.64197 -0.685267 -0.600265 -0.429828 -0.373217 -0.36428 -0.544931 -0.470117 -0.422335 -0.503769 -0.536538 -0.530709 -0.502602 -0.358128 -0.642876 -0.554235 -0.538239 -0.528449 -0.324064 -0.387853 -0.54116 -0.396606 -0.474214 -0.538647 </DataArray>
<DataArray Name="Uz 1" NumberOfComponents="1" format="ascii" type="Float32">0.67912 0.20704 0.700485 0.00894546 0.0773064 0.481447 0.0378949 -0.105568 0.0820098 0.403701 0.277183 0.0616083 0.312397 0.105849 0.228285 0.384608 0.274522 0.278654 0.191077 0.15213 0.240578 0.287526 0.098986 0.273835 -0.378706 -0.464337 -0.641022 -0.472989 -0.517353 -0.226129 -0.300791 -0.656584 -0.465035 -0.662551 -0.53905 -0.541509 -0.302538 -0.397455 -0.559706 -0.728577 -0.573663 -0.546356 -0.469221 -0.298347 -0.467543 -0.450929 -0.3732 -0.545516 -0.52448 </DataArray>
</PointData>
<CellData/>
</Piece>
</UnstructuredGrid>
</VTKFile>
