<?xml version="1.0" ?>
<VTKFile byte_order="LittleEndian" type="UnstructuredGrid" version="0.1">
<UnstructuredGrid>
<Piece NumberOfCells="80" NumberOfPoints="49">
<Points>
<DataArray Name="vertices" NumberOfComponents="3" format="ascii" type="Float32">6.66134e-16 0.12 0 2 0.12 0 2.04953 2.09897 0 0.0500259 2.14028 0 0.5 0.12 0 1 0.12 0 1.5 0.12 0 2.00981 0.610767 0 2.02019 1.10485 0 2.03304 1.60091 0 1.54719 2.11148 0 1.04611 2.1197 0 0.547317 2.12785 0 0.0334787 1.63871 0 0.0205481 1.13495 0 0.010071 0.629134 0 1.74112 0.880955 0 0.286204 0.896256 0 0.684722 0.340554 0 1.31895 0.339315 0 1.01245 0.899536 0 1.38787 1.5155 0 0.669892 1.5263 0 0.220658 1.28509 0 0.210311 0.513987 0 0.489292 0.590461 0 0.361995 0.329801 0 1.826 1.26104 0 1.52466 0.585256 0 1.80059 0.505688 0 1.64248 0.326796 0 1.00252 0.381614 0 1.18017 0.606257 0 1.3733 0.896756 0 0.83194 0.609138 0 0.652373 0.903084 0 1.54926 1.21411 0 1.70746 1.53134 0 1.79629 1.82438 0 1.54647 1.76777 0 1.23417 1.81711 0 0.492804 1.2279 0 0.352335 1.55373 0 0.83935 1.82355 0 0.523791 1.78501 0 0.283456 1.85111 0 1.02862 1.5217 0 0.84059 1.21488 0 1.2003 1.21066 0 </DataArray>
</Points>
<Cells>
<DataArray Name="connectivity" format="ascii" type="Int32">13 23 14 23 17 14 25 24 17 0 15 24 18 26 25 24 25 26 26 18 4 0 26 4 24 26 0 24 15 17 14 17 15 27 8 16 7 16 8 29 28 16 30 19 28 28 29 30 5 19 6 6 30 1 19 30 6 29 7 1 1 30 29 29 16 7 18 31 5 32 28 19 5 4 18 31 19 5 33 16 28 20 33 32 28 32 33 25 34 18 35 20 34 17 35 25 34 25 35 32 34 20 31 18 34 19 31 32 34 32 31 36 27 16 37 9 27 21 37 36 27 36 37 9 38 2 40 39 21 10 40 11 39 10 38 39 40 10 2 38 10 37 21 39 39 38 37 8 27 9 37 38 9 23 41 17 42 22 41 41 23 42 44 43 22 44 12 43 11 43 12 3 45 13 3 12 45 44 45 12 22 42 44 42 23 13 45 42 13 45 44 42 46 22 43 40 43 11 21 46 40 43 40 46 47 41 22 35 17 41 20 35 47 41 47 35 36 48 21 33 20 48 16 33 36 48 36 33 47 48 20 46 21 48 22 46 47 48 47 46 </DataArray>
<DataArray Name="offsets" format="ascii" type="Int32">3 6 9 12 15 18 21 24 27 30 33 36 39 42 45 48 51 54 57 60 63 66 69 72 75 78 81 84 87 90 93 96 99 102 105 108 111 114 117 120 123 126 129 132 135 138 141 144 147 150 153 156 159 162 165 168 171 174 177 180 183 186 189 192 195 198 201 204 207 210 213 216 219 222 225 228 231 234 237 240 </DataArray>
<DataArray Name="types" format="ascii" type="UInt8">5 5 5 5 5 5 5 5 5 5 5 5 5 5 5 5 5 5 5 5 5 5 5 5 5 5 5 5 5 5 5 5 5 5 5 5 5 5 5 5 5 5 5 5 5 5 5 5 5 5 5 5 5 5 5 5 5 5 5 5 5 5 5 5 5 5 5 5 5 5 5 5 5 5 5 5 5 5 5 5 </DataArray>
</Cells>
<PointData>
<DataArray Name="Uz 0" NumberOfComponents="1" format="ascii" type="Float32">-0.37991 -0.464559 -0.641645 -0.473598 -0.518607 -0.226346 -0.30131 -0.658208 -0.466217 -0.663225 -0.540127 -0.542349 -0.303532 -0.3982 -0.56085 -0.729915 -0.574767 -0.547307 -0.469907 -0.298846 -0.468247 -0.451576 -0.374147 -0.546527 -0.52549 0.0421337 0.234796 -0.133363 0.290761 0.101167 -0.193597 0.393078 0.496327 0.164098 -0.0511684 0.0103863 0.364562 -0.0361676 0.0349003 0.310014 -0.0118977 0.0104017 0.00169619 -0.046159 0.0679956 0.0469399 -0.0453613 0.176087 0.0121211 </DataArray>
<DataArray Name="Uz 1" NumberOfComponents="1" format="ascii" type="Float32">-0.643344 -0.686445 -0.600866 -0.431316 -0.374081 -0.364321 -0.546243 -0.471151 -0.423182 -0.50465 -0.537391 -0.531794 -0.503302 -0.358778 -0.644586 -0.555102 -0.539224 -0.529294 -0.324479 -0.388845 -0.541864 -0.397338 -0.47528 -0.539631 0.222247 -0.00861453 -0.146348 -0.277834 0.223429 -0.0816102 -0.0472769 0.629214 0.185104 -0.0371301 0.00552841 0.0164316 0.226834 -0.120459 0.0651624 0.0959198 0.0261814 -0.0142506 -0.0197194 0.0295537 -0.0313753 0.0632345 0.0486002 0.0083117 0.00200549 </DataArray>
</PointData>
<CellData/>
</Piece>
</UnstructuredGrid>
</VTKFile>
