<?xml version="1.0" ?>
<VTKFile byte_order="LittleEndian" type="UnstructuredGrid" version="0.1">
<UnstructuredGrid>
<Piece NumberOfCells="80" NumberOfPoints="49">
<Points>
<DataArray Name="vertices" NumberOfComponents="3" format="ascii" type="Float32">6.66134e-16 0.1 0 2 0.1 0 2.04131 2.08253 0 0.0416554 2.11696 0 0.5 0.1 0 1 0.1 0 1.5 0.1 0 2.0082 0.592313 0 2.01685 1.08739 0 2.02757 1.58411 0 1.53933 2.09295 0 1.03843 2.09979 0 0.539423 2.10659 0 0.0278691 1.61562 0 0.0170988 1.11247 0 0.00837492 0.607619 0 1.73886 0.862225 0 0.283889 0.874997 0 0.684399 0.320445 0 1.31863 0.319417 0 1.01038 0.879534 0 1.38301 1.49636 0 0.665004 1.50551 0 0.216713 1.26313 0 0.209287 0.493254 0 0.488224 0.569986 0 0.361618 0.309535 0 1.82213 1.24305 0 1.52362 0.565724 0 1.79961 0.48642 0 1.64212 0.307059 0 1.00211 0.361609 0 1.17914 0.586389 0 1.37118 0.877274 0 0.830902 0.588993 0 0.650231 0.882566 0 1.54575 1.19524 0 1.70244 1.51315 0 1.78973 1.80669 0 1.5403 1.74917 0 1.22784 1.79764 0 0.489253 1.2068 0 0.347246 1.532 0 0.833011 1.80314 0 0.517576 1.76373 0 0.276815 1.82896 0 1.02378 1.50174 0 0.837183 1.19456 0 1.19691 1.19101 0 </DataArray>
</Points>
<Cells>
<DataArray Name="connectivity" format="ascii" type="Int32">13 23 14 23 17 14 25 24 17 0 15 24 18 26 25 24 25 26 26 18 4 0 26 4 24 26 0 24 15 17 14 17 15 27 8 16 7 16 8 29 28 16 30 19 28 28 29 30 5 19 6 6 30 1 19 30 6 29 7 1 1 30 29 29 16 7 18 31 5 32 28 19 5 4 18 31 19 5 33 16 28 20 33 32 28 32 33 25 34 18 35 20 34 17 35 25 34 25 35 32 34 20 31 18 34 19 31 32 34 32 31 36 27 16 37 9 27 21 37 36 27 36 37 9 38 2 40 39 21 10 40 11 39 10 38 39 40 10 2 38 10 37 21 39 39 38 37 8 27 9 37 38 9 23 41 17 42 22 41 41 23 42 44 43 22 44 12 43 11 43 12 3 45 13 3 12 45 44 45 12 22 42 44 42 23 13 45 42 13 45 44 42 46 22 43 40 43 11 21 46 40 43 40 46 47 41 22 35 17 41 20 35 47 41 47 35 36 48 21 33 20 48 16 33 36 48 36 33 47 48 20 46 21 48 22 46 47 48 47 46 </DataArray>
<DataArray Name="offsets" format="ascii" type="Int32">3 6 9 12 15 18 21 24 27 30 33 36 39 42 45 48 51 54 57 60 63 66 69 72 75 78 81 84 87 90 93 96 99 102 105 108 111 114 117 120 123 126 129 132 135 138 141 144 147 150 153 156 159 162 165 168 171 174 177 180 183 186 189 192 195 198 201 204 207 210 213 216 219 222 225 228 231 234 237 240 </DataArray>
<DataArray Name="types" format="ascii" type="UInt8">5 5 5 5 5 5 5 5 5 5 5 5 5 5 5 5 5 5 5 5 5 5 5 5 5 5 5 5 5 5 5 5 5 5 5 5 5 5 5 5 5 5 5 5 5 5 5 5 5 5 5 5 5 5 5 5 5 5 5 5 5 5 5 5 5 5 5 5 5 5 5 5 5 5 5 5 5 5 5 5 </DataArray>
</Cells>
<PointData>
<DataArray Name="Uz 0" NumberOfComponents="1" format="ascii" type="Float32">0.2787 0.34641 0.712525 0.866598 0.046244 0.290814 0.250632 -0.0532437 0.0911391 0.51771 0.286005 0.281794 0.0200908 0.436191 0.242248 0.603854 0.296178 0.320028 0.254965 0.185285 0.314087 0.196727 0.140423 0.290564 0.275034 -0.644722 -0.687607 -0.601466 -0.432807 -0.374943 -0.36436 -0.547543 -0.472172 -0.424021 -0.505531 -0.538239 -0.532868 -0.503997 -0.359429 -0.6463 -0.555969 -0.540207 -0.530134 -0.324892 -0.389834 -0.54256 -0.398065 -0.476334 -0.540609 </DataArray>
<DataArray Name="Uz 1" NumberOfComponents="1" format="ascii" type="Float32">0.681829 0.21601 0.702338 0.0111389 0.0811168 0.483864 0.0458056 -0.0990883 0.087189 0.405705 0.281698 0.0684685 0.31667 0.108574 0.231025 0.387226 0.277977 0.283438 0.193439 0.155411 0.246423 0.291279 0.105523 0.278772 -0.381105 -0.464777 -0.642265 -0.474208 -0.51986 -0.226562 -0.301822 -0.659819 -0.467399 -0.663897 -0.5412 -0.543182 -0.304516 -0.398941 -0.561995 -0.731255 -0.57587 -0.548255 -0.470592 -0.299342 -0.468949 -0.452215 -0.375086 -0.547532 -0.526497 </DataArray>
</PointData>
<CellData/>
</Piece>
</UnstructuredGrid>
</VTKFile>
