<?xml version="1.0" ?>
<VTKFile byte_order="LittleEndian" type="UnstructuredGrid" version="0.1">
<UnstructuredGrid>
<Piece NumberOfCells="80" NumberOfPoints="49">
<Points>
<DataArray Name="vertices" NumberOfComponents="3" format="ascii" type="Float32">6.66134e-16 0.06 0 2 0.06 0 2.02483 2.04958 0 0.0249534 2.07024 0 0.5 0.06 0 1 0.06 0 1.5 0.06 0 2.00494 0.555396 0 2.01014 1.05245 0 2.01658 1.5505 0 1.52361 2.05582 0 1.02306 2.05993 0 0.523644 2.06401 0 0.0166855 1.5694 0 0.0102297 1.0675 0 0.00500384 0.56458 0 1.73434 0.824762 0 0.279276 0.832476 0 0.683756 0.28023 0 1.318 0.279622 0 1.00624 0.839532 0 1.37328 1.45807 0 0.655235 1.46392 0 0.208843 1.21921 0 0.20725 0.451788 0 0.486097 0.52904 0 0.360869 0.269003 0 1.81438 1.20706 0 1.52153 0.526662 0 1.79763 0.447885 0 1.6414 0.267587 0 1.00127 0.321603 0 1.17709 0.546658 0 1.36693 0.838309 0 0.828829 0.548705 0 0.645955 0.841529 0 1.53872 1.15751 0 1.69237 1.47675 0 1.77658 1.77126 0 1.52795 1.71192 0 1.21519 1.75867 0 0.482164 1.16458 0 0.337083 1.48852 0 0.820335 1.76229 0 0.505154 1.72115 0 0.263553 1.78462 0 1.01408 1.46179 0 0.830372 1.15391 0 1.19011 1.15171 0 </DataArray>
</Points>
<Cells>
<DataArray Name="connectivity" format="ascii" type="Int32">13 23 14 23 17 14 25 24 17 0 15 24 18 26 25 24 25 26 26 18 4 0 26 4 24 26 0 24 15 17 14 17 15 27 8 16 7 16 8 29 28 16 30 19 28 28 29 30 5 19 6 6 30 1 19 30 6 29 7 1 1 30 29 29 16 7 18 31 5 32 28 19 5 4 18 31 19 5 33 16 28 20 33 32 28 32 33 25 34 18 35 20 34 17 35 25 34 25 35 32 34 20 31 18 34 19 31 32 34 32 31 36 27 16 37 9 27 21 37 36 27 36 37 9 38 2 40 39 21 10 40 11 39 10 38 39 40 10 2 38 10 37 21 39 39 38 37 8 27 9 37 38 9 23 41 17 42 22 41 41 23 42 44 43 22 44 12 43 11 43 12 3 45 13 3 12 45 44 45 12 22 42 44 42 23 13 45 42 13 45 44 42 46 22 43 40 43 11 21 46 40 43 40 46 47 41 22 35 17 41 20 35 47 41 47 35 36 48 21 33 20 48 16 33 36 48 36 33 47 48 20 46 21 48 22 46 47 48 47 46 </DataArray>
<DataArray Name="offsets" format="ascii" type="Int32">3 6 9 12 15 18 21 24 27 30 33 36 39 42 45 48 51 54 57 60 63 66 69 72 75 78 81 84 87 90 93 96 99 102 105 108 111 114 117 120 123 126 129 132 135 138 141 144 147 150 153 156 159 162 165 168 171 174 177 180 183 186 189 192 195 198 201 204 207 210 213 216 219 222 225 228 231 234 237 240 </DataArray>
<DataArray Name="types" format="ascii" type="UInt8">5 5 5 5 5 5 5 5 5 5 5 5 5 5 5 5 5 5 5 5 5 5 5 5 5 5 5 5 5 5 5 5 5 5 5 5 5 5 5 5 5 5 5 5 5 5 5 5 5 5 5 5 5 5 5 5 5 5 5 5 5 5 5 5 5 5 5 5 5 5 5 5 5 5 5 5 5 5 5 5 </DataArray>
</Cells>
<PointData>
<DataArray Name="Uz 0" NumberOfComponents="1" format="ascii" type="Float32">-0.383469 -0.4652 -0.643496 -0.475428 -0.522368 -0.226996 -0.302825 -0.663002 -0.469765 -0.665231 -0.543338 -0.544828 -0.306458 -0.400409 -0.564285 -0.733944 -0.57807 -0.550144 -0.471952 -0.300329 -0.47034 -0.453468 -0.376946 -0.549527 -0.528497 0.0459539 0.226328 -0.13441 0.295086 0.100781 -0.196806 0.386321 0.485257 0.157169 -0.0509718 0.00702704 0.357029 -0.0409512 0.0352149 0.314741 -0.0131587 0.00919456 -0.00286979 -0.0475249 0.0656804 0.0411481 -0.0487003 0.170059 0.00818952 </DataArray>
<DataArray Name="Uz 1" NumberOfComponents="1" format="ascii" type="Float32">-0.647492 -0.689883 -0.602662 -0.435803 -0.37666 -0.364428 -0.550105 -0.474174 -0.425675 -0.507293 -0.539919 -0.534983 -0.505372 -0.360729 -0.649743 -0.557697 -0.542164 -0.531799 -0.325711 -0.391802 -0.543929 -0.399505 -0.478409 -0.542551 0.213973 -0.0117111 -0.148805 -0.27772 0.22468 -0.0833351 -0.0513293 0.619524 0.187032 -0.0398534 0.00301587 0.0115137 0.218573 -0.124451 0.0659538 0.0982059 0.0251692 -0.017001 -0.0212567 0.0280246 -0.0347623 0.0579598 0.0447457 0.00455784 -0.000574157 </DataArray>
</PointData>
<CellData/>
</Piece>
</UnstructuredGrid>
</VTKFile>
