<?xml version="1.0" ?>
<VTKFile byte_order="LittleEndian" type="UnstructuredGrid" version="0.1">
<UnstructuredGrid>
<Piece NumberOfCells="80" NumberOfPoints="49">
<Points>
<DataArray Name="vertices" NumberOfComponents="3" format="ascii" type="Float32">6.66134e-16 0.18 0 2 0.18 0 2.07411 2.14818 0 0.0752138 2.21014 0 0.5 0.18 0 1 0.18 0 1.5 0.18 0 2.01463 0.666116 0 2.03015 1.15721 0 2.0494 1.65122 0 1.57073 2.16697 0 1.06917 2.17934 0 0.571015 2.19153 0 0.0503782 1.70791 0 0.0309548 1.20235 0 0.0152008 0.693661 0 1.74786 0.937141 0 0.293181 0.960024 0 0.685695 0.400883 0 1.31989 0.399014 0 1.01866 0.959542 0 1.40244 1.57288 0 0.684566 1.58863 0 0.232535 1.35091 0 0.213409 0.576184 0 0.49251 0.651888 0 0.363137 0.390601 0 1.83756 1.31498 0 1.52777 0.643857 0 1.8035 0.563491 0 1.64355 0.386007 0 1.00377 0.441632 0 1.18324 0.665865 0 1.37964 0.955205 0 0.83506 0.66958 0 0.658809 0.964639 0 1.55976 1.27068 0 1.72251 1.58586 0 1.81593 1.87738 0 1.56496 1.82352 0 1.25313 1.87543 0 0.503477 1.29119 0 0.367635 1.61886 0 0.858372 1.88471 0 0.542457 1.84876 0 0.303418 1.91748 0 1.04316 1.58155 0 0.850816 1.27584 0 1.21048 1.2696 0 </DataArray>
</Points>
<Cells>
<DataArray Name="connectivity" format="ascii" type="Int32">13 23 14 23 17 14 25 24 17 0 15 24 18 26 25 24 25 26 26 18 4 0 26 4 24 26 0 24 15 17 14 17 15 27 8 16 7 16 8 29 28 16 30 19 28 28 29 30 5 19 6 6 30 1 19 30 6 29 7 1 1 30 29 29 16 7 18 31 5 32 28 19 5 4 18 31 19 5 33 16 28 20 33 32 28 32 33 25 34 18 35 20 34 17 35 25 34 25 35 32 34 20 31 18 34 19 31 32 34 32 31 36 27 16 37 9 27 21 37 36 27 36 37 9 38 2 40 39 21 10 40 11 39 10 38 39 40 10 2 38 10 37 21 39 39 38 37 8 27 9 37 38 9 23 41 17 42 22 41 41 23 42 44 43 22 44 12 43 11 43 12 3 45 13 3 12 45 44 45 12 22 42 44 42 23 13 45 42 13 45 44 42 46 22 43 40 43 11 21 46 40 43 40 46 47 41 22 35 17 41 20 35 47 41 47 35 36 48 21 33 20 48 16 33 36 48 36 33 47 48 20 46 21 48 22 46 47 48 47 46 </DataArray>
<DataArray Name="offsets" format="ascii" type="Int32">3 6 9 12 15 18 21 24 27 30 33 36 39 42 45 48 51 54 57 60 63 66 69 72 75 78 81 84 87 90 93 96 99 102 105 108 111 114 117 120 123 126 129 132 135 138 141 144 147 150 153 156 159 162 165 168 171 174 177 180 183 186 189 192 195 198 201 204 207 210 213 216 219 222 225 228 231 234 237 240 </DataArray>
<DataArray Name="types" format="ascii" type="UInt8">5 5 5 5 5 5 5 5 5 5 5 5 5 5 5 5 5 5 5 5 5 5 5 5 5 5 5 5 5 5 5 5 5 5 5 5 5 5 5 5 5 5 5 5 5 5 5 5 5 5 5 5 5 5 5 5 5 5 5 5 5 5 5 5 5 5 5 5 5 5 5 5 5 5 5 5 5 5 5 5 </DataArray>
</Cells>
<PointData>
<DataArray Name="Uz 0" NumberOfComponents="1" format="ascii" type="Float32">342645 251410 703669 733133 55518.6 216418 189392 34181.3 93797.6 480562 216745 212015 51916.8 375039 198704 568579 240220 249932 178911 141160 235054 152654 110717 219602 203174 -449448 -363084 -316944 -220548 -185350 -174930 -295041 -181946 -210739 -249755 -282633 -286342 -261635 -176917 -429492 -304932 -281858 -275093 -164392 -202451 -286379 -203776 -246326 -281564 </DataArray>
<DataArray Name="Uz 1" NumberOfComponents="1" format="ascii" type="Float32">626424 198705 675098 48780.7 60185 331894 61959.6 7809.26 88248.8 349987 210724 87879.8 235593 74030.8 276805 337613 210006 211888 127686 131878 183485 212202 106076 207979 -98876.7 -225614 -307106 -207108 -261797 -98488.5 -152318 -347400 -239067 -366998 -281098 -285477 -114166 -178168 -299487 -473145 -302872 -284394 -243632 -143950 -242073 -241700 -192833 -285850 -272790 </DataArray>
</PointData>
<CellData/>
</Piece>
</UnstructuredGrid>
</VTKFile>
