<?xml version="1.0" ?>
<VTKFile byte_order="LittleEndian" type="UnstructuredGrid" version="0.1">
<UnstructuredGrid>
<Piece NumberOfCells="80" NumberOfPoints="49">
<Points>
<DataArray Name="vertices" NumberOfComponents="3" format="ascii" type="Float32">6.66134e-16 0.12 0 2 0.12 0 2.04953 2.09897 0 0.0500259 2.14028 0 0.5 0.12 0 1 0.12 0 1.5 0.12 0 2.00981 0.610767 0 2.02019 1.10485 0 2.03304 1.60091 0 1.54719 2.11148 0 1.04611 2.1197 0 0.547317 2.12785 0 0.0334787 1.63871 0 0.0205481 1.13495 0 0.010071 0.629134 0 1.74112 0.880955 0 0.286204 0.896256 0 0.684722 0.340554 0 1.31895 0.339315 0 1.01245 0.899536 0 1.38787 1.5155 0 0.669892 1.5263 0 0.220658 1.28509 0 0.210311 0.513987 0 0.489292 0.590461 0 0.361995 0.329801 0 1.826 1.26104 0 1.52466 0.585256 0 1.80059 0.505688 0 1.64248 0.326796 0 1.00252 0.381614 0 1.18017 0.606257 0 1.3733 0.896756 0 0.83194 0.609138 0 0.652373 0.903084 0 1.54926 1.21411 0 1.70746 1.53134 0 1.79629 1.82438 0 1.54647 1.76777 0 1.23417 1.81711 0 0.492804 1.2279 0 0.352335 1.55373 0 0.83935 1.82355 0 0.523791 1.78501 0 0.283456 1.85111 0 1.02862 1.5217 0 0.84059 1.21488 0 1.2003 1.21066 0 </DataArray>
</Points>
<Cells>
<DataArray Name="connectivity" format="ascii" type="Int32">13 23 14 23 17 14 25 24 17 0 15 24 18 26 25 24 25 26 26 18 4 0 26 4 24 26 0 24 15 17 14 17 15 27 8 16 7 16 8 29 28 16 30 19 28 28 29 30 5 19 6 6 30 1 19 30 6 29 7 1 1 30 29 29 16 7 18 31 5 32 28 19 5 4 18 31 19 5 33 16 28 20 33 32 28 32 33 25 34 18 35 20 34 17 35 25 34 25 35 32 34 20 31 18 34 19 31 32 34 32 31 36 27 16 37 9 27 21 37 36 27 36 37 9 38 2 40 39 21 10 40 11 39 10 38 39 40 10 2 38 10 37 21 39 39 38 37 8 27 9 37 38 9 23 41 17 42 22 41 41 23 42 44 43 22 44 12 43 11 43 12 3 45 13 3 12 45 44 45 12 22 42 44 42 23 13 45 42 13 45 44 42 46 22 43 40 43 11 21 46 40 43 40 46 47 41 22 35 17 41 20 35 47 41 47 35 36 48 21 33 20 48 16 33 36 48 36 33 47 48 20 46 21 48 22 46 47 48 47 46 </DataArray>
<DataArray Name="offsets" format="ascii" type="Int32">3 6 9 12 15 18 21 24 27 30 33 36 39 42 45 48 51 54 57 60 63 66 69 72 75 78 81 84 87 90 93 96 99 102 105 108 111 114 117 120 123 126 129 132 135 138 141 144 147 150 153 156 159 162 165 168 171 174 177 180 183 186 189 192 195 198 201 204 207 210 213 216 219 222 225 228 231 234 237 240 </DataArray>
<DataArray Name="types" format="ascii" type="UInt8">5 5 5 5 5 5 5 5 5 5 5 5 5 5 5 5 5 5 5 5 5 5 5 5 5 5 5 5 5 5 5 5 5 5 5 5 5 5 5 5 5 5 5 5 5 5 5 5 5 5 5 5 5 5 5 5 5 5 5 5 5 5 5 5 5 5 5 5 5 5 5 5 5 5 5 5 5 5 5 5 </DataArray>
</Cells>
<PointData>
<DataArray Name="Uz 0" NumberOfComponents="1" format="ascii" type="Float32">-104073 -225849 -308085 -207732 -264930 -97657 -152113 -356659 -241476 -368077 -282662 -286579 -118022 -179184 -301148 -475853 -304516 -285770 -244258 -144735 -242584 -243020 -194409 -287156 -274120 259216 292076 10384.1 263928 137083 -40157.1 502136 503831 163543 34701.3 69474.3 431612 38683.6 70391.2 354943 58229.2 66275.6 61312.6 9715.35 84359.8 100459 25757.7 193333 69351.8 </DataArray>
<DataArray Name="Uz 1" NumberOfComponents="1" format="ascii" type="Float32">-452394 -367084 -317831 -223980 -187730 -173373 -302568 -188153 -213282 -250959 -283645 -292074 -262646 -178039 -433335 -306204 -283123 -276331 -164486 -204035 -287737 -204250 -249469 -282992 342759 107759 2000.17 -54780.5 237191 -269.639 12697.5 680928 183270 54048.5 62943 73596.7 263178 -7819.75 103654 249136 75991.7 50183.1 44312.1 81690.4 44233.9 101735 69715.7 66220 60127.5 </DataArray>
</PointData>
<CellData/>
</Piece>
</UnstructuredGrid>
</VTKFile>
