<?xml version="1.0" ?>
<VTKFile byte_order="LittleEndian" type="UnstructuredGrid" version="0.1">
<UnstructuredGrid>
<Piece NumberOfCells="80" NumberOfPoints="49">
<Points>
<DataArray Name="vertices" NumberOfComponents="3" format="ascii" type="Float32">6.66134e-16 0.02 0 2 0.02 0 2.00829 2.01655 0 0.00830431 2.02343 0 0.5 0.02 0 1 0.02 0 1.5 0.02 0 2.00165 0.518468 0 2.00339 1.01749 0 2.00554 1.51684 0 1.50787 2.01863 0 1.00769 2.01999 0 0.507878 2.02135 0 0.00554978 1.52315 0 0.00339998 1.02251 0 0.00166087 0.52153 0 1.72979 0.787295 0 0.274683 0.789951 0 0.683116 0.240017 0 1.31737 0.23983 0 1.0021 0.799531 0 1.36354 1.41974 0 0.645473 1.42229 0 0.201002 1.17526 0 0.20523 0.410321 0 0.483981 0.488096 0 0.360127 0.228472 0 1.80659 1.17105 0 1.51943 0.487604 0 1.79565 0.40935 0 1.64067 0.228117 0 1.00044 0.281599 0 1.17503 0.506931 0 1.36268 0.799345 0 0.826758 0.508422 0 0.641687 0.800493 0 1.53168 1.11976 0 1.68228 1.44032 0 1.7634 1.73578 0 1.51558 1.67462 0 1.20254 1.71966 0 0.475088 1.12235 0 0.32694 1.44501 0 0.807663 1.72139 0 0.492746 1.67852 0 0.250319 1.74022 0 1.00439 1.42181 0 0.823565 1.11324 0 1.18331 1.11239 0 </DataArray>
</Points>
<Cells>
<DataArray Name="connectivity" format="ascii" type="Int32">13 23 14 23 17 14 25 24 17 0 15 24 18 26 25 24 25 26 26 18 4 0 26 4 24 26 0 24 15 17 14 17 15 27 8 16 7 16 8 29 28 16 30 19 28 28 29 30 5 19 6 6 30 1 19 30 6 29 7 1 1 30 29 29 16 7 18 31 5 32 28 19 5 4 18 31 19 5 33 16 28 20 33 32 28 32 33 25 34 18 35 20 34 17 35 25 34 25 35 32 34 20 31 18 34 19 31 32 34 32 31 36 27 16 37 9 27 21 37 36 27 36 37 9 38 2 40 39 21 10 40 11 39 10 38 39 40 10 2 38 10 37 21 39 39 38 37 8 27 9 37 38 9 23 41 17 42 22 41 41 23 42 44 43 22 44 12 43 11 43 12 3 45 13 3 12 45 44 45 12 22 42 44 42 23 13 45 42 13 45 44 42 46 22 43 40 43 11 21 46 40 43 40 46 47 41 22 35 17 41 20 35 47 41 47 35 36 48 21 33 20 48 16 33 36 48 36 33 47 48 20 46 21 48 22 46 47 48 47 46 </DataArray>
<DataArray Name="offsets" format="ascii" type="Int32">3 6 9 12 15 18 21 24 27 30 33 36 39 42 45 48 51 54 57 60 63 66 69 72 75 78 81 84 87 90 93 96 99 102 105 108 111 114 117 120 123 126 129 132 135 138 141 144 147 150 153 156 159 162 165 168 171 174 177 180 183 186 189 192 195 198 201 204 207 210 213 216 219 222 225 228 231 234 237 240 </DataArray>
<DataArray Name="types" format="ascii" type="UInt8">5 5 5 5 5 5 5 5 5 5 5 5 5 5 5 5 5 5 5 5 5 5 5 5 5 5 5 5 5 5 5 5 5 5 5 5 5 5 5 5 5 5 5 5 5 5 5 5 5 5 5 5 5 5 5 5 5 5 5 5 5 5 5 5 5 5 5 5 5 5 5 5 5 5 5 5 5 5 5 5 </DataArray>
</Cells>
<PointData>
<DataArray Name="Uz 0" NumberOfComponents="1" format="ascii" type="Float32">0.285881 0.353612 0.716734 0.869654 0.0544606 0.291663 0.257541 -0.0366509 0.0965363 0.523396 0.294134 0.292514 0.028779 0.440945 0.24776 0.609876 0.302705 0.327206 0.261376 0.189648 0.321285 0.20718 0.14906 0.300319 0.2834 -0.650279 -0.692096 -0.603853 -0.438816 -0.37837 -0.364483 -0.552618 -0.476126 -0.427297 -0.509057 -0.54158 -0.537056 -0.506727 -0.362028 -0.653204 -0.55942 -0.544112 -0.533445 -0.326523 -0.393757 -0.545266 -0.400924 -0.480437 -0.544472 </DataArray>
<DataArray Name="Uz 1" NumberOfComponents="1" format="ascii" type="Float32">0.687262 0.233696 0.706003 0.0154538 0.0885308 0.488586 0.0613905 -0.0862902 0.0974082 0.409678 0.290616 0.0819994 0.325108 0.11385 0.236482 0.392408 0.284788 0.292898 0.197976 0.161845 0.257973 0.298689 0.118373 0.288557 -0.385798 -0.465607 -0.644716 -0.476648 -0.524877 -0.22743 -0.303799 -0.666134 -0.472135 -0.666555 -0.545462 -0.546446 -0.308363 -0.401859 -0.566576 -0.736642 -0.580264 -0.552021 -0.473301 -0.301308 -0.471717 -0.454687 -0.378779 -0.551501 -0.530482 </DataArray>
</PointData>
<CellData/>
</Piece>
</UnstructuredGrid>
</VTKFile>
