<?xml version="1.0" ?>
<VTKFile byte_order="LittleEndian" type="UnstructuredGrid" version="0.1">
<UnstructuredGrid>
<Piece NumberOfCells="80" NumberOfPoints="49">
<Points>
<DataArray Name="vertices" NumberOfComponents="3" format="ascii" type="Float32">6.66134e-16 0.04 0 2 0.04 0 2.01657 2.03307 0 0.0166221 2.04685 0 0.5 0.04 0 1 0.04 0 1.5 0.04 0 2.0033 0.536933 0 2.00677 1.03497 0 2.01106 1.53368 0 1.51575 2.03723 0 1.01537 2.03997 0 0.515759 2.04269 0 0.0111116 1.54628 0 0.00680987 1.04501 0 0.00332882 0.543056 0 1.73206 0.806029 0 0.276977 0.811214 0 0.683435 0.260123 0 1.31769 0.259725 0 1.00417 0.819531 0 1.36841 1.43891 0 0.650353 1.44311 0 0.204919 1.19724 0 0.206238 0.431054 0 0.485038 0.508568 0 0.360497 0.248738 0 1.81049 1.18906 0 1.52048 0.507132 0 1.79664 0.428617 0 1.64103 0.247852 0 1.00085 0.301601 0 1.17606 0.526794 0 1.36481 0.818827 0 0.827793 0.528563 0 0.64382 0.821011 0 1.5352 1.13863 0 1.68733 1.45854 0 1.76999 1.75353 0 1.52177 1.69328 0 1.20887 1.73917 0 0.478624 1.14347 0 0.332009 1.46677 0 0.813999 1.74184 0 0.498948 1.69984 0 0.256933 1.76243 0 1.00924 1.4418 0 0.826968 1.13357 0 1.18671 1.13205 0 </DataArray>
</Points>
<Cells>
<DataArray Name="connectivity" format="ascii" type="Int32">13 23 14 23 17 14 25 24 17 0 15 24 18 26 25 24 25 26 26 18 4 0 26 4 24 26 0 24 15 17 14 17 15 27 8 16 7 16 8 29 28 16 30 19 28 28 29 30 5 19 6 6 30 1 19 30 6 29 7 1 1 30 29 29 16 7 18 31 5 32 28 19 5 4 18 31 19 5 33 16 28 20 33 32 28 32 33 25 34 18 35 20 34 17 35 25 34 25 35 32 34 20 31 18 34 19 31 32 34 32 31 36 27 16 37 9 27 21 37 36 27 36 37 9 38 2 40 39 21 10 40 11 39 10 38 39 40 10 2 38 10 37 21 39 39 38 37 8 27 9 37 38 9 23 41 17 42 22 41 41 23 42 44 43 22 44 12 43 11 43 12 3 45 13 3 12 45 44 45 12 22 42 44 42 23 13 45 42 13 45 44 42 46 22 43 40 43 11 21 46 40 43 40 46 47 41 22 35 17 41 20 35 47 41 47 35 36 48 21 33 20 48 16 33 36 48 36 33 47 48 20 46 21 48 22 46 47 48 47 46 </DataArray>
<DataArray Name="offsets" format="ascii" type="Int32">3 6 9 12 15 18 21 24 27 30 33 36 39 42 45 48 51 54 57 60 63 66 69 72 75 78 81 84 87 90 93 96 99 102 105 108 111 114 117 120 123 126 129 132 135 138 141 144 147 150 153 156 159 162 165 168 171 174 177 180 183 186 189 192 195 198 201 204 207 210 213 216 219 222 225 228 231 234 237 240 </DataArray>
<DataArray Name="types" format="ascii" type="UInt8">5 5 5 5 5 5 5 5 5 5 5 5 5 5 5 5 5 5 5 5 5 5 5 5 5 5 5 5 5 5 5 5 5 5 5 5 5 5 5 5 5 5 5 5 5 5 5 5 5 5 5 5 5 5 5 5 5 5 5 5 5 5 5 5 5 5 5 5 5 5 5 5 5 5 5 5 5 5 5 5 </DataArray>
</Cells>
<PointData>
<DataArray Name="Uz 0" NumberOfComponents="1" format="ascii" type="Float32">0 0 0.0165673 0.0166221 0 0 0 0.00330028 0.00677083 0.0110628 0.015745 0.0153723 0.0157593 0.0111116 0.00680987 0.00332882 0.00455994 0.00458186 0.000638399 0.000635238 0.00413875 0.00974085 0.00975741 0.00782701 0.00201216 0.00211117 0.000738477 0.00779704 0.00210454 0.00199655 0.000733192 0.000833737 0.00205829 0.0042552 0.00206882 0.00426422 0.00705043 0.0100993 0.0131925 0.012374 0.0126573 0.00706803 0.0101317 0.01267 0.0124016 0.0132203 0.00969293 0.00680523 0.00679989 </DataArray>
<DataArray Name="Uz 1" NumberOfComponents="1" format="ascii" type="Float32">0.04 0.04 0.0330725 0.0468453 0.04 0.04 0.04 0.0369332 0.0349718 0.0336779 0.0372344 0.0399671 0.0426911 0.0462795 0.0450059 0.0430563 0.0374688 0.0425274 0.0402116 0.039791 0.0400004 0.0383388 0.0416384 0.0439564 0.0414668 0.040942 0.0405303 0.0360233 0.0390568 0.0385351 0.0394701 0.0400016 0.0397248 0.0389643 0.040281 0.0410362 0.0377554 0.0364485 0.035513 0.0373213 0.0390387 0.0422344 0.0435256 0.0409261 0.0426562 0.0444274 0.0399888 0.0406688 0.0393219 </DataArray>
</PointData>
<CellData/>
</Piece>
</UnstructuredGrid>
</VTKFile>
