<?xml version="1.0" ?>
<VTKFile byte_order="LittleEndian" type="UnstructuredGrid" version="0.1">
<UnstructuredGrid>
<Piece NumberOfCells="80" NumberOfPoints="49">
<Points>
<DataArray Name="vertices" NumberOfComponents="3" format="ascii" type="Float32">6.66134e-16 0.1 0 2 0.1 0 2 2.1 0 3.99136e-06 2.1 0 0.5 0.1 0 1 0.1 0 1.5 0.1 0 2 0.599999 0 2 1.1 0 2 1.6 0 1.5 2.1 0 1 2.1 0 0.500004 2.1 0 2.68072e-06 1.6 0 1.65876e-06 1.1 0 8.3407e-07 0.600001 0 1.7275 0.868559 0 0.272396 0.868687 0 0.682797 0.319912 0 1.31705 0.319934 0 1.00003 0.879531 0 1.35867 1.50057 0 0.640598 1.50147 0 0.197094 1.25328 0 0.204226 0.489588 0 0.482927 0.567626 0 0.359758 0.308207 0 1.80269 1.25303 0 1.51838 0.568075 0 1.79465 0.490082 0 1.6403 0.308382 0 1.00002 0.361599 0 1.174 0.587069 0 1.36056 0.879862 0 0.825725 0.588282 0 0.639557 0.879975 0 1.52815 1.20088 0 1.67723 1.52209 0 1.7568 1.81801 0 1.50939 1.75595 0 1.19621 1.80013 0 0.471558 1.20123 0 0.32188 1.52325 0 0.801332 1.80092 0 0.486549 1.75718 0 0.243716 1.818 0 0.999547 1.50182 0 0.820164 1.19291 0 1.17991 1.19273 0 </DataArray>
</Points>
<Cells>
<DataArray Name="connectivity" format="ascii" type="Int32">13 23 14 23 17 14 25 24 17 0 15 24 18 26 25 24 25 26 26 18 4 0 26 4 24 26 0 24 15 17 14 17 15 27 8 16 7 16 8 29 28 16 30 19 28 28 29 30 5 19 6 6 30 1 19 30 6 29 7 1 1 30 29 29 16 7 18 31 5 32 28 19 5 4 18 31 19 5 33 16 28 20 33 32 28 32 33 25 34 18 35 20 34 17 35 25 34 25 35 32 34 20 31 18 34 19 31 32 34 32 31 36 27 16 37 9 27 21 37 36 27 36 37 9 38 2 40 39 21 10 40 11 39 10 38 39 40 10 2 38 10 37 21 39 39 38 37 8 27 9 37 38 9 23 41 17 42 22 41 41 23 42 44 43 22 44 12 43 11 43 12 3 45 13 3 12 45 44 45 12 22 42 44 42 23 13 45 42 13 45 44 42 46 22 43 40 43 11 21 46 40 43 40 46 47 41 22 35 17 41 20 35 47 41 47 35 36 48 21 33 20 48 16 33 36 48 36 33 47 48 20 46 21 48 22 46 47 48 47 46 </DataArray>
<DataArray Name="offsets" format="ascii" type="Int32">3 6 9 12 15 18 21 24 27 30 33 36 39 42 45 48 51 54 57 60 63 66 69 72 75 78 81 84 87 90 93 96 99 102 105 108 111 114 117 120 123 126 129 132 135 138 141 144 147 150 153 156 159 162 165 168 171 174 177 180 183 186 189 192 195 198 201 204 207 210 213 216 219 222 225 228 231 234 237 240 </DataArray>
<DataArray Name="types" format="ascii" type="UInt8">5 5 5 5 5 5 5 5 5 5 5 5 5 5 5 5 5 5 5 5 5 5 5 5 5 5 5 5 5 5 5 5 5 5 5 5 5 5 5 5 5 5 5 5 5 5 5 5 5 5 5 5 5 5 5 5 5 5 5 5 5 5 5 5 5 5 5 5 5 5 5 5 5 5 5 5 5 5 5 5 </DataArray>
</Cells>
<PointData>
<DataArray Name="Uz 0" NumberOfComponents="1" format="ascii" type="Float32">0 0 3.99132e-06 3.99136e-06 0 0 0 8.3403e-07 1.65898e-06 2.68059e-06 3.78631e-06 3.69752e-06 3.78641e-06 2.68072e-06 1.65876e-06 8.3407e-07 1.11476e-06 1.11497e-06 1.46113e-07 1.46081e-07 9.92181e-07 2.34277e-06 2.3448e-06 1.8934e-06 4.96563e-07 5.05966e-07 1.75735e-07 1.89301e-06 5.06911e-07 4.96628e-07 1.76152e-07 1.90665e-07 4.88128e-07 1.02536e-06 4.89968e-07 1.02567e-06 1.70241e-06 2.4365e-06 3.18014e-06 2.97925e-06 3.04297e-06 1.70317e-06 2.43917e-06 3.04498e-06 2.98255e-06 3.17999e-06 2.32745e-06 1.63386e-06 1.63345e-06 </DataArray>
<DataArray Name="Uz 1" NumberOfComponents="1" format="ascii" type="Float32">0.1 0.1 0.0999984 0.100002 0.1 0.1 0.1 0.0999993 0.0999988 0.0999985 0.0999994 0.1 0.100001 0.100001 0.100001 0.100001 0.0999994 0.100001 0.1 0.1 0.1 0.0999996 0.1 0.100001 0.1 0.1 0.1 0.0999991 0.0999998 0.0999997 0.0999999 0.1 0.0999999 0.0999998 0.1 0.1 0.0999995 0.0999992 0.099999 0.0999994 0.0999998 0.100001 0.100001 0.1 0.100001 0.100001 0.1 0.1 0.0999998 </DataArray>
</PointData>
<CellData/>
</Piece>
</UnstructuredGrid>
</VTKFile>
