<?xml version="1.0" ?>
<VTKFile byte_order="LittleEndian" type="UnstructuredGrid" version="0.1">
<UnstructuredGrid>
<Piece NumberOfCells="80" NumberOfPoints="49">
<Points>
<DataArray Name="vertices" NumberOfComponents="3" format="ascii" type="Float32">6.66134e-16 0.2 0 2 0.2 0 2.00001 2.2 0 7.98273e-06 2.2 0 0.5 0.2 0 1 0.2 0 1.5 0.2 0 2 0.699999 0 2 1.2 0 2.00001 1.7 0 1.50001 2.2 0 1.00001 2.2 0 0.500008 2.2 0 5.36144e-06 1.7 0 3.31751e-06 1.2 0 1.66814e-06 0.700001 0 1.72751 0.968559 0 0.272397 0.968688 0 0.682797 0.419912 0 1.31705 0.419934 0 1.00003 0.979531 0 1.35867 1.60057 0 0.6406 1.60147 0 0.197096 1.35328 0 0.204227 0.589588 0 0.482927 0.667626 0 0.359759 0.408207 0 1.8027 1.35303 0 1.51838 0.668075 0 1.79465 0.590082 0 1.6403 0.408381 0 1.00002 0.461599 0 1.174 0.687069 0 1.36056 0.979862 0 0.825725 0.688282 0 0.639558 0.979976 0 1.52815 1.30088 0 1.67724 1.62209 0 1.75681 1.91801 0 1.5094 1.85595 0 1.19622 1.90013 0 0.47156 1.30123 0 0.321882 1.62325 0 0.801335 1.90092 0 0.486552 1.85718 0 0.243719 1.918 0 0.99955 1.60182 0 0.820166 1.29291 0 1.17992 1.29273 0 </DataArray>
</Points>
<Cells>
<DataArray Name="connectivity" format="ascii" type="Int32">13 23 14 23 17 14 25 24 17 0 15 24 18 26 25 24 25 26 26 18 4 0 26 4 24 26 0 24 15 17 14 17 15 27 8 16 7 16 8 29 28 16 30 19 28 28 29 30 5 19 6 6 30 1 19 30 6 29 7 1 1 30 29 29 16 7 18 31 5 32 28 19 5 4 18 31 19 5 33 16 28 20 33 32 28 32 33 25 34 18 35 20 34 17 35 25 34 25 35 32 34 20 31 18 34 19 31 32 34 32 31 36 27 16 37 9 27 21 37 36 27 36 37 9 38 2 40 39 21 10 40 11 39 10 38 39 40 10 2 38 10 37 21 39 39 38 37 8 27 9 37 38 9 23 41 17 42 22 41 41 23 42 44 43 22 44 12 43 11 43 12 3 45 13 3 12 45 44 45 12 22 42 44 42 23 13 45 42 13 45 44 42 46 22 43 40 43 11 21 46 40 43 40 46 47 41 22 35 17 41 20 35 47 41 47 35 36 48 21 33 20 48 16 33 36 48 36 33 47 48 20 46 21 48 22 46 47 48 47 46 </DataArray>
<DataArray Name="offsets" format="ascii" type="Int32">3 6 9 12 15 18 21 24 27 30 33 36 39 42 45 48 51 54 57 60 63 66 69 72 75 78 81 84 87 90 93 96 99 102 105 108 111 114 117 120 123 126 129 132 135 138 141 144 147 150 153 156 159 162 165 168 171 174 177 180 183 186 189 192 195 198 201 204 207 210 213 216 219 222 225 228 231 234 237 240 </DataArray>
<DataArray Name="types" format="ascii" type="UInt8">5 5 5 5 5 5 5 5 5 5 5 5 5 5 5 5 5 5 5 5 5 5 5 5 5 5 5 5 5 5 5 5 5 5 5 5 5 5 5 5 5 5 5 5 5 5 5 5 5 5 5 5 5 5 5 5 5 5 5 5 5 5 5 5 5 5 5 5 5 5 5 5 5 5 5 5 5 5 5 5 </DataArray>
</Cells>
<PointData>
<DataArray Name="Uz 0" NumberOfComponents="1" format="ascii" type="Float32">-0.386948 -0.465804 -0.64532 -0.477258 -0.526131 -0.227646 -0.304275 -0.667678 -0.47332 -0.667212 -0.546519 -0.547243 -0.309301 -0.402577 -0.567721 -0.737994 -0.581358 -0.552954 -0.473971 -0.301793 -0.472399 -0.455283 -0.379684 -0.552479 -0.531467 0.0497384 0.217637 -0.135464 0.299353 0.100253 -0.200124 0.379359 0.474085 0.150147 -0.050776 0.00353397 0.34934 -0.045768 0.0354353 0.319436 -0.0144258 0.00793237 -0.00750411 -0.0490175 0.063201 0.0352348 -0.0521857 0.163823 0.00415129 </DataArray>
<DataArray Name="Uz 1" NumberOfComponents="1" format="ascii" type="Float32">-0.651678 -0.693177 -0.604447 -0.440327 -0.379221 -0.364506 -0.553854 -0.477081 -0.428095 -0.509939 -0.542402 -0.538075 -0.507396 -0.362677 -0.65494 -0.560279 -0.545081 -0.534259 -0.326926 -0.394729 -0.545923 -0.401625 -0.481433 -0.545424 0.205637 -0.0149544 -0.151281 -0.277625 0.22585 -0.0851992 -0.0555446 0.609664 0.188903 -0.0425827 0.00044273 0.00644703 0.210254 -0.128462 0.0667275 0.100485 0.0241355 -0.0197772 -0.0228849 0.0263326 -0.0382886 0.0525225 0.0407157 0.000666411 -0.00325425 </DataArray>
</PointData>
<CellData/>
</Piece>
</UnstructuredGrid>
</VTKFile>
