<?xml version="1.0" ?>
<VTKFile byte_order="LittleEndian" type="UnstructuredGrid" version="0.1">
<UnstructuredGrid>
<Piece NumberOfCells="80" NumberOfPoints="49">
<Points>
<DataArray Name="vertices" NumberOfComponents="3" format="ascii" type="Float32">6.66134e-16 0.2 0 2 0.2 0 2.00001 2.2 0 7.98273e-06 2.2 0 0.5 0.2 0 1 0.2 0 1.5 0.2 0 2 0.699999 0 2 1.2 0 2.00001 1.7 0 1.50001 2.2 0 1.00001 2.2 0 0.500008 2.2 0 5.36144e-06 1.7 0 3.31751e-06 1.2 0 1.66814e-06 0.700001 0 1.72751 0.968559 0 0.272397 0.968688 0 0.682797 0.419912 0 1.31705 0.419934 0 1.00003 0.979531 0 1.35867 1.60057 0 0.6406 1.60147 0 0.197096 1.35328 0 0.204227 0.589588 0 0.482927 0.667626 0 0.359759 0.408207 0 1.8027 1.35303 0 1.51838 0.668075 0 1.79465 0.590082 0 1.6403 0.408381 0 1.00002 0.461599 0 1.174 0.687069 0 1.36056 0.979862 0 0.825725 0.688282 0 0.639558 0.979976 0 1.52815 1.30088 0 1.67724 1.62209 0 1.75681 1.91801 0 1.5094 1.85595 0 1.19622 1.90013 0 0.47156 1.30123 0 0.321882 1.62325 0 0.801335 1.90092 0 0.486552 1.85718 0 0.243719 1.918 0 0.99955 1.60182 0 0.820166 1.29291 0 1.17992 1.29273 0 </DataArray>
</Points>
<Cells>
<DataArray Name="connectivity" format="ascii" type="Int32">13 23 14 23 17 14 25 24 17 0 15 24 18 26 25 24 25 26 26 18 4 0 26 4 24 26 0 24 15 17 14 17 15 27 8 16 7 16 8 29 28 16 30 19 28 28 29 30 5 19 6 6 30 1 19 30 6 29 7 1 1 30 29 29 16 7 18 31 5 32 28 19 5 4 18 31 19 5 33 16 28 20 33 32 28 32 33 25 34 18 35 20 34 17 35 25 34 25 35 32 34 20 31 18 34 19 31 32 34 32 31 36 27 16 37 9 27 21 37 36 27 36 37 9 38 2 40 39 21 10 40 11 39 10 38 39 40 10 2 38 10 37 21 39 39 38 37 8 27 9 37 38 9 23 41 17 42 22 41 41 23 42 44 43 22 44 12 43 11 43 12 3 45 13 3 12 45 44 45 12 22 42 44 42 23 13 45 42 13 45 44 42 46 22 43 40 43 11 21 46 40 43 40 46 47 41 22 35 17 41 20 35 47 41 47 35 36 48 21 33 20 48 16 33 36 48 36 33 47 48 20 46 21 48 22 46 47 48 47 46 </DataArray>
<DataArray Name="offsets" format="ascii" type="Int32">3 6 9 12 15 18 21 24 27 30 33 36 39 42 45 48 51 54 57 60 63 66 69 72 75 78 81 84 87 90 93 96 99 102 105 108 111 114 117 120 123 126 129 132 135 138 141 144 147 150 153 156 159 162 165 168 171 174 177 180 183 186 189 192 195 198 201 204 207 210 213 216 219 222 225 228 231 234 237 240 </DataArray>
<DataArray Name="types" format="ascii" type="UInt8">5 5 5 5 5 5 5 5 5 5 5 5 5 5 5 5 5 5 5 5 5 5 5 5 5 5 5 5 5 5 5 5 5 5 5 5 5 5 5 5 5 5 5 5 5 5 5 5 5 5 5 5 5 5 5 5 5 5 5 5 5 5 5 5 5 5 5 5 5 5 5 5 5 5 5 5 5 5 5 5 </DataArray>
</Cells>
<PointData>
<DataArray Name="Uz 0" NumberOfComponents="1" format="ascii" type="Float32">-177996 -214270 -296847 -219538 -242020 -104717 -139966 -307132 -217727 -306917 -251399 -251732 -142278 -185185 -261151 -339477 -267425 -254359 -218027 -138825 -217304 -209430 -174655 -254140 -244475 613568 464671 394843 390398 198591 139637 530179 530844 269130 264553 238708 508439 204086 136754 592762 296776 239170 226735 97493.9 210373 253059 174662 303644 238016 </DataArray>
<DataArray Name="Uz 1" NumberOfComponents="1" format="ascii" type="Float32">-299772 -318862 -278046 -202550 -174442 -167673 -254773 -219457 -196924 -234572 -249505 -247514 -233402 -166831 -301273 -257729 -250737 -245759 -150386 -181575 -251124 -184748 -221459 -250895 489229 265444 383606 346522 329761 126120 137399 742143 316307 366187 237476 244258 289660 191833 283375 615716 273867 238267 181524 185731 210207 233980 172252 243029 224276 </DataArray>
</PointData>
<CellData/>
</Piece>
</UnstructuredGrid>
</VTKFile>
