<?xml version="1.0" ?>
<VTKFile byte_order="LittleEndian" type="UnstructuredGrid" version="0.1">
<UnstructuredGrid>
<Piece NumberOfCells="80" NumberOfPoints="49">
<Points>
<DataArray Name="vertices" NumberOfComponents="3" format="ascii" type="Float32">6.66134e-16 0.14 0 2 0.14 0 2.05588 2.11735 0 0.0558791 2.16265 0 0.5 0.14 0 1 0.14 0 1.5 0.14 0 2.01168 0.630103 0 2.02323 1.12366 0 2.03753 1.61943 0 1.55301 2.13103 0 1.05177 2.14 0 0.55301 2.14897 0 0.0375301 1.66058 0 0.0232226 1.15634 0 0.011677 0.649899 0 1.74311 0.900444 0 0.288005 0.916804 0 0.684843 0.360527 0 1.3191 0.35932 0 1.01392 0.919531 0 1.39147 1.53526 0 0.673423 1.54679 0 0.2236 1.30615 0 0.211178 0.534103 0 0.49001 0.610519 0 0.362219 0.349743 0 1.82919 1.28017 0 1.52547 0.605168 0 1.8016 0.525574 0 1.64277 0.346843 0 1.00269 0.401599 0 1.18083 0.626228 0 1.37491 0.916616 0 0.832584 0.629128 0 0.653915 0.923223 0 1.55198 1.23367 0 1.71134 1.55061 0 1.80132 1.84345 0 1.5511 1.78733 0 1.23881 1.83709 0 0.495401 1.24844 0 0.356025 1.57475 0 0.843959 1.844 0 0.528302 1.80589 0 0.288232 1.87255 0 1.03213 1.54182 0 0.843037 1.23504 0 1.20278 1.23059 0 </DataArray>
</Points>
<Cells>
<DataArray Name="connectivity" format="ascii" type="Int32">13 23 14 23 17 14 25 24 17 0 15 24 18 26 25 24 25 26 26 18 4 0 26 4 24 26 0 24 15 17 14 17 15 27 8 16 7 16 8 29 28 16 30 19 28 28 29 30 5 19 6 6 30 1 19 30 6 29 7 1 1 30 29 29 16 7 18 31 5 32 28 19 5 4 18 31 19 5 33 16 28 20 33 32 28 32 33 25 34 18 35 20 34 17 35 25 34 25 35 32 34 20 31 18 34 19 31 32 34 32 31 36 27 16 37 9 27 21 37 36 27 36 37 9 38 2 40 39 21 10 40 11 39 10 38 39 40 10 2 38 10 37 21 39 39 38 37 8 27 9 37 38 9 23 41 17 42 22 41 41 23 42 44 43 22 44 12 43 11 43 12 3 45 13 3 12 45 44 45 12 22 42 44 42 23 13 45 42 13 45 44 42 46 22 43 40 43 11 21 46 40 43 40 46 47 41 22 35 17 41 20 35 47 41 47 35 36 48 21 33 20 48 16 33 36 48 36 33 47 48 20 46 21 48 22 46 47 48 47 46 </DataArray>
<DataArray Name="offsets" format="ascii" type="Int32">3 6 9 12 15 18 21 24 27 30 33 36 39 42 45 48 51 54 57 60 63 66 69 72 75 78 81 84 87 90 93 96 99 102 105 108 111 114 117 120 123 126 129 132 135 138 141 144 147 150 153 156 159 162 165 168 171 174 177 180 183 186 189 192 195 198 201 204 207 210 213 216 219 222 225 228 231 234 237 240 </DataArray>
<DataArray Name="types" format="ascii" type="UInt8">5 5 5 5 5 5 5 5 5 5 5 5 5 5 5 5 5 5 5 5 5 5 5 5 5 5 5 5 5 5 5 5 5 5 5 5 5 5 5 5 5 5 5 5 5 5 5 5 5 5 5 5 5 5 5 5 5 5 5 5 5 5 5 5 5 5 5 5 5 5 5 5 5 5 5 5 5 5 5 5 </DataArray>
</Cells>
<PointData>
<DataArray Name="Uz 0" NumberOfComponents="1" format="ascii" type="Float32">0 0 0 0 0 0 0 0 0 0 0 0 0 0 0 0 0 0 0 0 0 0 0 0 0 0 0 0 0 0 0 0 0 0 0 0 0 0 0 0 0 0 0 0 0 0 0 0 0 </DataArray>
</PointData>
<CellData/>
</Piece>
</UnstructuredGrid>
</VTKFile>
