<?xml version="1.0" ?>
<VTKFile byte_order="LittleEndian" type="UnstructuredGrid" version="0.1">
<UnstructuredGrid>
<Piece NumberOfCells="80" NumberOfPoints="49">
<Points>
<DataArray Name="vertices" NumberOfComponents="3" format="ascii" type="Float32">6.66134e-16 0.1 0 2 0.1 0 2.03991 2.08382 0 0.0399136 2.11618 0 0.5 0.1 0 1 0.1 0 1.5 0.1 0 2.00834 0.592931 0 2.01659 1.08833 0 2.02681 1.58531 0 1.53786 2.09359 0 1.03698 2.1 0 0.537864 2.10641 0 0.0268072 1.6147 0 0.0165876 1.11167 0 0.0083407 0.607071 0 1.73865 0.862763 0 0.283545 0.874484 0 0.684258 0.320351 0 1.31851 0.319496 0 1.00995 0.879531 0 1.3821 1.49678 0 0.664044 1.50527 0 0.216026 1.26247 0 0.209191 0.492813 0 0.487986 0.569693 0 0.361516 0.309305 0 1.82162 1.24384 0 1.52344 0.565999 0 1.79961 0.486862 0 1.64206 0.307283 0 1.00193 0.361599 0 1.17888 0.586469 0 1.37081 0.877543 0 0.830624 0.588887 0 0.649812 0.882295 0 1.54517 1.19573 0 1.7016 1.51389 0 1.7886 1.80761 0 1.53918 1.74979 0 1.22664 1.79796 0 0.488588 1.20638 0 0.346269 1.53146 0 0.831779 1.80312 0 0.516372 1.76341 0 0.275512 1.82839 0 1.02282 1.50182 0 0.836501 1.19443 0 1.19625 1.1912 0 </DataArray>
</Points>
<Cells>
<DataArray Name="connectivity" format="ascii" type="Int32">13 23 14 23 17 14 25 24 17 0 15 24 18 26 25 24 25 26 26 18 4 0 26 4 24 26 0 24 15 17 14 17 15 27 8 16 7 16 8 29 28 16 30 19 28 28 29 30 5 19 6 6 30 1 19 30 6 29 7 1 1 30 29 29 16 7 18 31 5 32 28 19 5 4 18 31 19 5 33 16 28 20 33 32 28 32 33 25 34 18 35 20 34 17 35 25 34 25 35 32 34 20 31 18 34 19 31 32 34 32 31 36 27 16 37 9 27 21 37 36 27 36 37 9 38 2 40 39 21 10 40 11 39 10 38 39 40 10 2 38 10 37 21 39 39 38 37 8 27 9 37 38 9 23 41 17 42 22 41 41 23 42 44 43 22 44 12 43 11 43 12 3 45 13 3 12 45 44 45 12 22 42 44 42 23 13 45 42 13 45 44 42 46 22 43 40 43 11 21 46 40 43 40 46 47 41 22 35 17 41 20 35 47 41 47 35 36 48 21 33 20 48 16 33 36 48 36 33 47 48 20 46 21 48 22 46 47 48 47 46 </DataArray>
<DataArray Name="offsets" format="ascii" type="Int32">3 6 9 12 15 18 21 24 27 30 33 36 39 42 45 48 51 54 57 60 63 66 69 72 75 78 81 84 87 90 93 96 99 102 105 108 111 114 117 120 123 126 129 132 135 138 141 144 147 150 153 156 159 162 165 168 171 174 177 180 183 186 189 192 195 198 201 204 207 210 213 216 219 222 225 228 231 234 237 240 </DataArray>
<DataArray Name="types" format="ascii" type="UInt8">5 5 5 5 5 5 5 5 5 5 5 5 5 5 5 5 5 5 5 5 5 5 5 5 5 5 5 5 5 5 5 5 5 5 5 5 5 5 5 5 5 5 5 5 5 5 5 5 5 5 5 5 5 5 5 5 5 5 5 5 5 5 5 5 5 5 5 5 5 5 5 5 5 5 5 5 5 5 5 5 </DataArray>
</Cells>
<PointData>
<DataArray Name="Uz 0" NumberOfComponents="1" format="ascii" type="Float32">-175268 -213728 -295448 -218171 -239250 -104127 -138820 -303647 -215066 -305351 -248906 -249830 -139997 -183461 -258526 -336474 -264884 -252132 -216474 -137656 -215667 -208002 -172547 -251836 -242173 601454 465524 393391 378253 192958 141771 529414 540227 273060 260496 237207 510787 205025 131743 578667 294200 235265 226573 96456.3 209225 253629 174590 304186 236528 </DataArray>
<DataArray Name="Uz 1" NumberOfComponents="1" format="ascii" type="Float32">-296689 -316412 -276717 -199192 -172503 -167491 -251979 -217150 -195047 -232585 -247574 -245174 -231723 -165351 -297405 -255756 -248489 -243790 -149407 -179325 -249547 -183071 -219190 -248644 498134 265194 384082 343665 320071 129095 139532 745875 307791 365736 234613 244023 297118 194576 276722 605834 269594 236541 178923 185168 210310 234860 172212 241365 221589 </DataArray>
</PointData>
<CellData/>
</Piece>
</UnstructuredGrid>
</VTKFile>
