<?xml version="1.0" ?>
<VTKFile byte_order="LittleEndian" type="UnstructuredGrid" version="0.1">
<UnstructuredGrid>
<Piece NumberOfCells="80" NumberOfPoints="49">
<Points>
<DataArray Name="vertices" NumberOfComponents="3" format="ascii" type="Float32">6.66134e-16 0.133333 0 2 0.133333 0 2.00001 2.13333 0 5.32182e-06 2.13334 0 0.5 0.133333 0 1 0.133333 0 1.5 0.133333 0 2 0.633332 0 2 1.13333 0 2 1.63333 0 1.50001 2.13333 0 1 2.13333 0 0.500005 2.13333 0 3.5743e-06 1.63334 0 2.21167e-06 1.13333 0 1.11209e-06 0.633334 0 1.7275 0.901893 0 0.272397 0.902021 0 0.682797 0.353245 0 1.31705 0.353268 0 1.00003 0.912864 0 1.35867 1.5339 0 0.640599 1.5348 0 0.197095 1.28662 0 0.204226 0.522921 0 0.482927 0.600959 0 0.359759 0.341541 0 1.80269 1.28637 0 1.51838 0.601409 0 1.79465 0.523415 0 1.6403 0.341715 0 1.00002 0.394932 0 1.174 0.620403 0 1.36056 0.913195 0 0.825725 0.621616 0 0.639557 0.913309 0 1.52815 1.23421 0 1.67723 1.55542 0 1.7568 1.85134 0 1.5094 1.78929 0 1.19621 1.83347 0 0.471558 1.23457 0 0.32188 1.55658 0 0.801333 1.83425 0 0.48655 1.79052 0 0.243717 1.85133 0 0.999548 1.53515 0 0.820165 1.22624 0 1.17991 1.22606 0 </DataArray>
</Points>
<Cells>
<DataArray Name="connectivity" format="ascii" type="Int32">13 23 14 23 17 14 25 24 17 0 15 24 18 26 25 24 25 26 26 18 4 0 26 4 24 26 0 24 15 17 14 17 15 27 8 16 7 16 8 29 28 16 30 19 28 28 29 30 5 19 6 6 30 1 19 30 6 29 7 1 1 30 29 29 16 7 18 31 5 32 28 19 5 4 18 31 19 5 33 16 28 20 33 32 28 32 33 25 34 18 35 20 34 17 35 25 34 25 35 32 34 20 31 18 34 19 31 32 34 32 31 36 27 16 37 9 27 21 37 36 27 36 37 9 38 2 40 39 21 10 40 11 39 10 38 39 40 10 2 38 10 37 21 39 39 38 37 8 27 9 37 38 9 23 41 17 42 22 41 41 23 42 44 43 22 44 12 43 11 43 12 3 45 13 3 12 45 44 45 12 22 42 44 42 23 13 45 42 13 45 44 42 46 22 43 40 43 11 21 46 40 43 40 46 47 41 22 35 17 41 20 35 47 41 47 35 36 48 21 33 20 48 16 33 36 48 36 33 47 48 20 46 21 48 22 46 47 48 47 46 </DataArray>
<DataArray Name="offsets" format="ascii" type="Int32">3 6 9 12 15 18 21 24 27 30 33 36 39 42 45 48 51 54 57 60 63 66 69 72 75 78 81 84 87 90 93 96 99 102 105 108 111 114 117 120 123 126 129 132 135 138 141 144 147 150 153 156 159 162 165 168 171 174 177 180 183 186 189 192 195 198 201 204 207 210 213 216 219 222 225 228 231 234 237 240 </DataArray>
<DataArray Name="types" format="ascii" type="UInt8">5 5 5 5 5 5 5 5 5 5 5 5 5 5 5 5 5 5 5 5 5 5 5 5 5 5 5 5 5 5 5 5 5 5 5 5 5 5 5 5 5 5 5 5 5 5 5 5 5 5 5 5 5 5 5 5 5 5 5 5 5 5 5 5 5 5 5 5 5 5 5 5 5 5 5 5 5 5 5 5 </DataArray>
</Cells>
<PointData>
<DataArray Name="Uz 0" NumberOfComponents="1" format="ascii" type="Float32">-0.386948 -0.465804 -0.645321 -0.477258 -0.526131 -0.227646 -0.304275 -0.667679 -0.473321 -0.667212 -0.546519 -0.547243 -0.309301 -0.402577 -0.567721 -0.737994 -0.581358 -0.552954 -0.473972 -0.301794 -0.472399 -0.455283 -0.379684 -0.552479 -0.531467 0.0497388 0.217636 -0.135465 0.299353 0.100253 -0.200125 0.379358 0.474083 0.150146 -0.050776 0.00353361 0.349339 -0.0457685 0.0354353 0.319436 -0.0144259 0.00793225 -0.00750459 -0.0490177 0.0632007 0.0352342 -0.0521861 0.163822 0.00415087 </DataArray>
<DataArray Name="Uz 1" NumberOfComponents="1" format="ascii" type="Float32">-0.651679 -0.693178 -0.604447 -0.440327 -0.379221 -0.364506 -0.553854 -0.477081 -0.428095 -0.509939 -0.542402 -0.538075 -0.507396 -0.362677 -0.654941 -0.56028 -0.545081 -0.534259 -0.326926 -0.394729 -0.545923 -0.401626 -0.481434 -0.545425 0.205636 -0.0149548 -0.151282 -0.277625 0.22585 -0.0851994 -0.0555451 0.609663 0.188903 -0.042583 0.000442471 0.00644649 0.210253 -0.128462 0.0667276 0.100485 0.0241354 -0.0197775 -0.022885 0.0263324 -0.038289 0.0525219 0.0407153 0.000666007 -0.00325452 </DataArray>
</PointData>
<CellData/>
</Piece>
</UnstructuredGrid>
</VTKFile>
