<?xml version="1.0" ?>
<VTKFile byte_order="LittleEndian" type="UnstructuredGrid" version="0.1">
<UnstructuredGrid>
<Piece NumberOfCells="80" NumberOfPoints="49">
<Points>
<DataArray Name="vertices" NumberOfComponents="3" format="ascii" type="Float32">6.66134e-16 0.16 0 2 0.16 0 2.06386 2.13412 0 0.0638618 2.18589 0 0.5 0.16 0 1 0.16 0 1.5 0.16 0 2.01334 0.648689 0 2.02654 1.14133 0 2.04289 1.63649 0 1.56058 2.14975 0 1.05916 2.16 0 0.560582 2.17025 0 0.0428916 1.68351 0 0.0265401 1.17867 0 0.0133451 0.671313 0 1.74534 0.919284 0 0.290235 0.937963 0 0.685135 0.380614 0 1.31939 0.379232 0 1.01591 0.939531 0 1.39615 1.5545 0 0.678112 1.56755 0 0.227387 1.32799 0 0.212171 0.554748 0 0.491022 0.630933 0 0.36257 0.369963 0 1.83298 1.29833 0 1.52649 0.624753 0 1.80259 0.54493 0 1.64312 0.366623 0 1.00307 0.421599 0 1.18181 0.646108 0 1.37696 0.936152 0 0.833564 0.649249 0 0.655967 0.943687 0 1.55539 1.25265 0 1.71622 1.56897 0 1.80768 1.86137 0 1.55706 1.80609 0 1.2449 1.85666 0 0.498807 1.26947 0 0.360904 1.59639 0 0.850049 1.86444 0 0.534267 1.82714 0 0.294592 1.89463 0 1.03678 1.56182 0 0.846305 1.25535 0 1.20605 1.25029 0 </DataArray>
</Points>
<Cells>
<DataArray Name="connectivity" format="ascii" type="Int32">13 23 14 23 17 14 25 24 17 0 15 24 18 26 25 24 25 26 26 18 4 0 26 4 24 26 0 24 15 17 14 17 15 27 8 16 7 16 8 29 28 16 30 19 28 28 29 30 5 19 6 6 30 1 19 30 6 29 7 1 1 30 29 29 16 7 18 31 5 32 28 19 5 4 18 31 19 5 33 16 28 20 33 32 28 32 33 25 34 18 35 20 34 17 35 25 34 25 35 32 34 20 31 18 34 19 31 32 34 32 31 36 27 16 37 9 27 21 37 36 27 36 37 9 38 2 40 39 21 10 40 11 39 10 38 39 40 10 2 38 10 37 21 39 39 38 37 8 27 9 37 38 9 23 41 17 42 22 41 41 23 42 44 43 22 44 12 43 11 43 12 3 45 13 3 12 45 44 45 12 22 42 44 42 23 13 45 42 13 45 44 42 46 22 43 40 43 11 21 46 40 43 40 46 47 41 22 35 17 41 20 35 47 41 47 35 36 48 21 33 20 48 16 33 36 48 36 33 47 48 20 46 21 48 22 46 47 48 47 46 </DataArray>
<DataArray Name="offsets" format="ascii" type="Int32">3 6 9 12 15 18 21 24 27 30 33 36 39 42 45 48 51 54 57 60 63 66 69 72 75 78 81 84 87 90 93 96 99 102 105 108 111 114 117 120 123 126 129 132 135 138 141 144 147 150 153 156 159 162 165 168 171 174 177 180 183 186 189 192 195 198 201 204 207 210 213 216 219 222 225 228 231 234 237 240 </DataArray>
<DataArray Name="types" format="ascii" type="UInt8">5 5 5 5 5 5 5 5 5 5 5 5 5 5 5 5 5 5 5 5 5 5 5 5 5 5 5 5 5 5 5 5 5 5 5 5 5 5 5 5 5 5 5 5 5 5 5 5 5 5 5 5 5 5 5 5 5 5 5 5 5 5 5 5 5 5 5 5 5 5 5 5 5 5 5 5 5 5 5 5 </DataArray>
</Cells>
<PointData>
<DataArray Name="Uz 0" NumberOfComponents="1" format="ascii" type="Float32">0 0 0.0638611 0.0638618 0 0 0 0.0133445 0.0265436 0.0428895 0.060581 0.0591604 0.0605825 0.0428916 0.0265401 0.0133451 0.0178361 0.0178395 0.0023378 0.00233729 0.0158749 0.0374843 0.0375168 0.0302943 0.007945 0.00809546 0.00281176 0.0302882 0.00811058 0.00794605 0.00281843 0.00305064 0.00781005 0.0164057 0.00783949 0.0164107 0.0272385 0.0389841 0.0508822 0.0476681 0.0486875 0.0272507 0.0390267 0.0487197 0.0477208 0.0508799 0.0372391 0.0261417 0.0261352 </DataArray>
<DataArray Name="Uz 1" NumberOfComponents="1" format="ascii" type="Float32">0.16 0.16 0.134118 0.185888 0.16 0.16 0.16 0.148689 0.141326 0.136489 0.149746 0.159999 0.170252 0.183515 0.178673 0.171313 0.150724 0.169277 0.160703 0.159298 0.16 0.153934 0.166083 0.174707 0.16516 0.163307 0.161756 0.145296 0.156677 0.154848 0.158242 0.16 0.159039 0.15629 0.160967 0.163712 0.151768 0.146883 0.143358 0.150139 0.156523 0.168239 0.17314 0.163523 0.169956 0.176629 0.160008 0.162442 0.157559 </DataArray>
</PointData>
<CellData/>
</Piece>
</UnstructuredGrid>
</VTKFile>
