<?xml version="1.0" ?>
<VTKFile byte_order="LittleEndian" type="UnstructuredGrid" version="0.1">
<UnstructuredGrid>
<Piece NumberOfCells="80" NumberOfPoints="49">
<Points>
<DataArray Name="vertices" NumberOfComponents="3" format="ascii" type="Float32">6.66134e-16 0.0666667 0 2 0.0666667 0 2 2.06667 0 2.66091e-06 2.06667 0 0.5 0.0666667 0 1 0.0666667 0 1.5 0.0666667 0 2 0.566666 0 2 1.06667 0 2 1.56667 0 1.5 2.06667 0 1 2.06667 0 0.500003 2.06667 0 1.78715e-06 1.56667 0 1.10584e-06 1.06667 0 5.56046e-07 0.566667 0 1.7275 0.835226 0 0.272396 0.835354 0 0.682797 0.286578 0 1.31705 0.286601 0 1.00003 0.846198 0 1.35867 1.46724 0 0.640597 1.46814 0 0.197094 1.21995 0 0.204226 0.456255 0 0.482927 0.534292 0 0.359758 0.274874 0 1.80269 1.2197 0 1.51838 0.534742 0 1.79465 0.456749 0 1.6403 0.275048 0 1.00002 0.328266 0 1.174 0.553736 0 1.36056 0.846529 0 0.825725 0.554949 0 0.639556 0.846642 0 1.52815 1.16754 0 1.67723 1.48876 0 1.7568 1.78468 0 1.50939 1.72262 0 1.19621 1.7668 0 0.471557 1.1679 0 0.321879 1.48992 0 0.801331 1.76758 0 0.486548 1.72385 0 0.243715 1.78467 0 0.999547 1.46848 0 0.820164 1.15957 0 1.17991 1.15939 0 </DataArray>
</Points>
<Cells>
<DataArray Name="connectivity" format="ascii" type="Int32">13 23 14 23 17 14 25 24 17 0 15 24 18 26 25 24 25 26 26 18 4 0 26 4 24 26 0 24 15 17 14 17 15 27 8 16 7 16 8 29 28 16 30 19 28 28 29 30 5 19 6 6 30 1 19 30 6 29 7 1 1 30 29 29 16 7 18 31 5 32 28 19 5 4 18 31 19 5 33 16 28 20 33 32 28 32 33 25 34 18 35 20 34 17 35 25 34 25 35 32 34 20 31 18 34 19 31 32 34 32 31 36 27 16 37 9 27 21 37 36 27 36 37 9 38 2 40 39 21 10 40 11 39 10 38 39 40 10 2 38 10 37 21 39 39 38 37 8 27 9 37 38 9 23 41 17 42 22 41 41 23 42 44 43 22 44 12 43 11 43 12 3 45 13 3 12 45 44 45 12 22 42 44 42 23 13 45 42 13 45 44 42 46 22 43 40 43 11 21 46 40 43 40 46 47 41 22 35 17 41 20 35 47 41 47 35 36 48 21 33 20 48 16 33 36 48 36 33 47 48 20 46 21 48 22 46 47 48 47 46 </DataArray>
<DataArray Name="offsets" format="ascii" type="Int32">3 6 9 12 15 18 21 24 27 30 33 36 39 42 45 48 51 54 57 60 63 66 69 72 75 78 81 84 87 90 93 96 99 102 105 108 111 114 117 120 123 126 129 132 135 138 141 144 147 150 153 156 159 162 165 168 171 174 177 180 183 186 189 192 195 198 201 204 207 210 213 216 219 222 225 228 231 234 237 240 </DataArray>
<DataArray Name="types" format="ascii" type="UInt8">5 5 5 5 5 5 5 5 5 5 5 5 5 5 5 5 5 5 5 5 5 5 5 5 5 5 5 5 5 5 5 5 5 5 5 5 5 5 5 5 5 5 5 5 5 5 5 5 5 5 5 5 5 5 5 5 5 5 5 5 5 5 5 5 5 5 5 5 5 5 5 5 5 5 5 5 5 5 5 5 </DataArray>
</Cells>
<PointData>
<DataArray Name="Uz 0" NumberOfComponents="1" format="ascii" type="Float32">0.287659 0.355359 0.717776 0.870413 0.0564876 0.291839 0.259232 -0.0325403 0.0978616 0.524803 0.296149 0.29517 0.0309262 0.44212 0.249124 0.611382 0.304322 0.328984 0.262949 0.190691 0.323064 0.209754 0.151189 0.302739 0.285472 -0.651679 -0.693178 -0.604447 -0.440328 -0.379221 -0.364506 -0.553855 -0.477081 -0.428096 -0.50994 -0.542403 -0.538075 -0.507397 -0.362677 -0.654941 -0.56028 -0.545082 -0.53426 -0.326926 -0.394729 -0.545923 -0.401626 -0.481434 -0.545425 </DataArray>
<DataArray Name="Uz 1" NumberOfComponents="1" format="ascii" type="Float32">0.688623 0.238063 0.706911 0.0165177 0.0903406 0.489743 0.0652355 -0.0831259 0.0999327 0.410664 0.292821 0.085341 0.327194 0.115133 0.237842 0.393692 0.28647 0.295239 0.199071 0.163426 0.260831 0.300521 0.121537 0.290983 -0.386948 -0.465804 -0.645321 -0.477258 -0.526131 -0.227646 -0.304275 -0.667679 -0.473321 -0.667212 -0.546519 -0.547244 -0.309301 -0.402577 -0.567721 -0.737995 -0.581359 -0.552955 -0.473972 -0.301794 -0.4724 -0.455284 -0.379684 -0.552479 -0.531468 </DataArray>
</PointData>
<CellData/>
</Piece>
</UnstructuredGrid>
</VTKFile>
