<?xml version="1.0" ?>
<VTKFile byte_order="LittleEndian" type="UnstructuredGrid" version="0.1">
<UnstructuredGrid>
<Piece NumberOfCells="80" NumberOfPoints="49">
<Points>
<DataArray Name="vertices" NumberOfComponents="3" format="ascii" type="Float32">6.66134e-16 0.12 0 2 0.12 0 2.0479 2.10059 0 0.0478964 2.13942 0 0.5 0.12 0 1 0.12 0 1.5 0.12 0 2.01001 0.611517 0 2.01991 1.10599 0 2.03217 1.60237 0 1.54544 2.11231 0 1.04437 2.12 0 0.545437 2.12769 0 0.0321687 1.63764 0 0.0199051 1.134 0 0.0100088 0.628485 0 1.74088 0.881603 0 0.285775 0.895644 0 0.68455 0.340439 0 1.3188 0.339408 0 1.01194 0.899531 0 1.38678 1.51602 0 0.668733 1.52603 0 0.219813 1.28431 0 0.210184 0.513458 0 0.488998 0.590106 0 0.361867 0.329524 0 1.82541 1.26201 0 1.52446 0.585584 0 1.8006 0.506218 0 1.64241 0.327063 0 1.00231 0.381599 0 1.17986 0.606348 0 1.37286 0.89708 0 0.831604 0.609007 0 0.651864 0.902759 0 1.54858 1.2147 0 1.70647 1.53225 0 1.79496 1.82553 0 1.54514 1.76856 0 1.23272 1.81753 0 0.491994 1.22741 0 0.351147 1.5531 0 0.837869 1.82356 0 0.522337 1.78465 0 0.281872 1.85047 0 1.02747 1.52182 0 0.839769 1.21474 0 1.19951 1.2109 0 </DataArray>
</Points>
<Cells>
<DataArray Name="connectivity" format="ascii" type="Int32">13 23 14 23 17 14 25 24 17 0 15 24 18 26 25 24 25 26 26 18 4 0 26 4 24 26 0 24 15 17 14 17 15 27 8 16 7 16 8 29 28 16 30 19 28 28 29 30 5 19 6 6 30 1 19 30 6 29 7 1 1 30 29 29 16 7 18 31 5 32 28 19 5 4 18 31 19 5 33 16 28 20 33 32 28 32 33 25 34 18 35 20 34 17 35 25 34 25 35 32 34 20 31 18 34 19 31 32 34 32 31 36 27 16 37 9 27 21 37 36 27 36 37 9 38 2 40 39 21 10 40 11 39 10 38 39 40 10 2 38 10 37 21 39 39 38 37 8 27 9 37 38 9 23 41 17 42 22 41 41 23 42 44 43 22 44 12 43 11 43 12 3 45 13 3 12 45 44 45 12 22 42 44 42 23 13 45 42 13 45 44 42 46 22 43 40 43 11 21 46 40 43 40 46 47 41 22 35 17 41 20 35 47 41 47 35 36 48 21 33 20 48 16 33 36 48 36 33 47 48 20 46 21 48 22 46 47 48 47 46 </DataArray>
<DataArray Name="offsets" format="ascii" type="Int32">3 6 9 12 15 18 21 24 27 30 33 36 39 42 45 48 51 54 57 60 63 66 69 72 75 78 81 84 87 90 93 96 99 102 105 108 111 114 117 120 123 126 129 132 135 138 141 144 147 150 153 156 159 162 165 168 171 174 177 180 183 186 189 192 195 198 201 204 207 210 213 216 219 222 225 228 231 234 237 240 </DataArray>
<DataArray Name="types" format="ascii" type="UInt8">5 5 5 5 5 5 5 5 5 5 5 5 5 5 5 5 5 5 5 5 5 5 5 5 5 5 5 5 5 5 5 5 5 5 5 5 5 5 5 5 5 5 5 5 5 5 5 5 5 5 5 5 5 5 5 5 5 5 5 5 5 5 5 5 5 5 5 5 5 5 5 5 5 5 5 5 5 5 5 5 </DataArray>
</Cells>
<PointData>
<DataArray Name="Uz 0" NumberOfComponents="1" format="ascii" type="Float32">-0.379832 -0.464392 -0.641668 -0.47369 -0.518905 -0.226105 -0.301284 -0.658586 -0.466377 -0.663126 -0.540015 -0.542283 -0.303349 -0.398078 -0.560871 -0.730159 -0.574729 -0.547143 -0.469921 -0.298743 -0.468131 -0.451557 -0.374185 -0.546469 -0.525462 0.0431315 0.234368 -0.133603 0.291315 0.101227 -0.193866 0.392756 0.495062 0.163487 -0.051138 0.01004 0.36396 -0.0368873 0.0350291 0.310736 -0.0122065 0.0101817 0.00113878 -0.046226 0.0677849 0.0464315 -0.0455225 0.175931 0.0116914 </DataArray>
<DataArray Name="Uz 1" NumberOfComponents="1" format="ascii" type="Float32">-0.643634 -0.686786 -0.600982 -0.431567 -0.374163 -0.364033 -0.546566 -0.471062 -0.423198 -0.504755 -0.537365 -0.531969 -0.503016 -0.358816 -0.64485 -0.555133 -0.539216 -0.529123 -0.324372 -0.388859 -0.541807 -0.397251 -0.475513 -0.53955 0.220894 -0.00896026 -0.147027 -0.277644 0.223675 -0.081781 -0.0473308 0.628369 0.185266 -0.0378084 0.00511505 0.0160491 0.225719 -0.121346 0.0651442 0.0964747 0.025936 -0.0147885 -0.0198778 0.0294419 -0.0317065 0.062928 0.0485429 0.00794146 0.00167195 </DataArray>
</PointData>
<CellData/>
</Piece>
</UnstructuredGrid>
</VTKFile>
