<?xml version="1.0" ?>
<VTKFile byte_order="LittleEndian" type="UnstructuredGrid" version="0.1">
<UnstructuredGrid>
<Piece NumberOfCells="80" NumberOfPoints="49">
<Points>
<DataArray Name="vertices" NumberOfComponents="3" format="ascii" type="Float32">6.66134e-16 0.2 0 2 0.2 0 2.07983 2.16765 0 0.0798273 2.23236 0 0.5 0.2 0 1 0.2 0 1.5 0.2 0 2.01668 0.685861 0 2.03318 1.17666 0 2.05361 1.67061 0 1.57573 2.18718 0 1.07395 2.2 0 0.575728 2.21281 0 0.0536144 1.72939 0 0.0331751 1.22334 0 0.0166814 0.714141 0 1.7498 0.956966 0 0.294695 0.980282 0 0.685719 0.42079 0 1.31997 0.419057 0 1.01988 0.979531 0 1.40553 1.59299 0 0.687492 1.60907 0 0.23496 1.37167 0 0.214157 0.596038 0 0.493046 0.67176 0 0.363273 0.410402 0 1.84055 1.33465 0 1.52851 0.663922 0 1.80458 0.583642 0 1.64382 0.406184 0 1.00383 0.461599 0 1.18376 0.685868 0 1.38106 0.975224 0 0.835524 0.689491 0 0.660069 0.984615 0 1.5622 1.29059 0 1.72596 1.60569 0 1.8204 1.89721 0 1.56898 1.84363 0 1.25707 1.89579 0 0.50562 1.31153 0 0.37066 1.63967 0 0.862229 1.90532 0 0.546198 1.86963 0 0.307312 1.93879 0 1.04609 1.60183 0 0.85284 1.29596 0 1.21258 1.28968 0 </DataArray>
</Points>
<Cells>
<DataArray Name="connectivity" format="ascii" type="Int32">13 23 14 23 17 14 25 24 17 0 15 24 18 26 25 24 25 26 26 18 4 0 26 4 24 26 0 24 15 17 14 17 15 27 8 16 7 16 8 29 28 16 30 19 28 28 29 30 5 19 6 6 30 1 19 30 6 29 7 1 1 30 29 29 16 7 18 31 5 32 28 19 5 4 18 31 19 5 33 16 28 20 33 32 28 32 33 25 34 18 35 20 34 17 35 25 34 25 35 32 34 20 31 18 34 19 31 32 34 32 31 36 27 16 37 9 27 21 37 36 27 36 37 9 38 2 40 39 21 10 40 11 39 10 38 39 40 10 2 38 10 37 21 39 39 38 37 8 27 9 37 38 9 23 41 17 42 22 41 41 23 42 44 43 22 44 12 43 11 43 12 3 45 13 3 12 45 44 45 12 22 42 44 42 23 13 45 42 13 45 44 42 46 22 43 40 43 11 21 46 40 43 40 46 47 41 22 35 17 41 20 35 47 41 47 35 36 48 21 33 20 48 16 33 36 48 36 33 47 48 20 46 21 48 22 46 47 48 47 46 </DataArray>
<DataArray Name="offsets" format="ascii" type="Int32">3 6 9 12 15 18 21 24 27 30 33 36 39 42 45 48 51 54 57 60 63 66 69 72 75 78 81 84 87 90 93 96 99 102 105 108 111 114 117 120 123 126 129 132 135 138 141 144 147 150 153 156 159 162 165 168 171 174 177 180 183 186 189 192 195 198 201 204 207 210 213 216 219 222 225 228 231 234 237 240 </DataArray>
<DataArray Name="types" format="ascii" type="UInt8">5 5 5 5 5 5 5 5 5 5 5 5 5 5 5 5 5 5 5 5 5 5 5 5 5 5 5 5 5 5 5 5 5 5 5 5 5 5 5 5 5 5 5 5 5 5 5 5 5 5 5 5 5 5 5 5 5 5 5 5 5 5 5 5 5 5 5 5 5 5 5 5 5 5 5 5 5 5 5 5 </DataArray>
</Cells>
<PointData>
<DataArray Name="Uz 0" NumberOfComponents="1" format="ascii" type="Float32">0 0 0.0798264 0.0798273 0 0 0 0.0166806 0.0331795 0.0536118 0.0757263 0.0739505 0.0757281 0.0536144 0.0331751 0.0166814 0.0222951 0.0222994 0.00292225 0.00292161 0.0198436 0.0468554 0.0468959 0.0378679 0.00993125 0.0101193 0.00351469 0.0378603 0.0101382 0.00993256 0.00352303 0.00381329 0.00976257 0.0205072 0.00979936 0.0205134 0.0340481 0.0487301 0.0636028 0.0595851 0.0608594 0.0340634 0.0487833 0.0608996 0.059651 0.0635999 0.0465489 0.0326772 0.0326689 </DataArray>
<DataArray Name="Uz 1" NumberOfComponents="1" format="ascii" type="Float32">0.2 0.2 0.167648 0.232359 0.2 0.2 0.2 0.185861 0.176657 0.170612 0.187182 0.199999 0.212814 0.229393 0.223341 0.214141 0.188406 0.211596 0.200879 0.199122 0.2 0.192418 0.207604 0.218384 0.20645 0.204134 0.202195 0.18162 0.195847 0.19356 0.197802 0.2 0.198799 0.195362 0.201208 0.20464 0.18971 0.183603 0.179198 0.187673 0.195653 0.210298 0.216425 0.204404 0.212445 0.220787 0.20001 0.203053 0.196949 </DataArray>
</PointData>
<CellData/>
</Piece>
</UnstructuredGrid>
</VTKFile>
