<?xml version="1.0" ?>
<VTKFile byte_order="LittleEndian" type="UnstructuredGrid" version="0.1">
<UnstructuredGrid>
<Piece NumberOfCells="8" NumberOfPoints="27">
<Points>
<DataArray Name="vertices" NumberOfComponents="3" format="ascii" type="Float32">0 0 0 -0.0520626 -0.0520626 1.71915 2 0 0 2.05206 -0.0520626 1.71915 2 2 0 2.05206 2.05206 1.71915 0 2 0 -0.0520626 2.05206 1.71915 -0.0650752 -0.0650752 0.913627 2.06508 -0.0650752 0.913627 1 0 0 1 -0.0427697 1.87396 2.06508 2.06508 0.913627 2 1 0 2.04277 1 1.87396 -0.0650752 2.06508 0.913627 1 2 0 1 2.04277 1.87396 0 1 0 -0.0427697 1 1.87396 1 -0.0444706 0.938347 2.04447 1 0.938347 1 2.04447 0.938347 -0.0444706 1 0.938347 1 1 0 1 1 1.88413 1 1 0.951936 </DataArray>
</Points>
<Cells>
<DataArray Name="connectivity" format="ascii" type="Int32">0 10 20 8 18 24 26 23 18 24 26 23 6 16 22 15 10 2 9 20 24 13 21 26 24 13 21 26 16 4 12 22 8 20 11 1 23 26 25 19 23 26 25 19 15 22 17 7 20 9 3 11 26 21 14 25 26 21 14 25 22 12 5 17 </DataArray>
<DataArray Name="offsets" format="ascii" type="Int32">8 16 24 32 40 48 56 64 </DataArray>
<DataArray Name="types" format="ascii" type="UInt8">12 12 12 12 12 12 12 12 </DataArray>
</Cells>
<PointData>
<DataArray Name="Uz 0" NumberOfComponents="1" format="ascii" type="Float32">-0.0297636 -0.0601361 -0.0297636 -0.0155069 -0.0155069 -0.020136 -0.0206562 -0.0109856 -0.0106929 -0.0109143 0.0255211 -0.00485144 -0.00756981 -0.00294067 -0.00294067 -0.00525524 -0.00315315 -0.00315315 -0.0918141 -0.149795 -0.0918141 -0.125248 -0.125248 -0.125248 -0.0939134 -0.0931983 -0.0922437 </DataArray>
<DataArray Name="Uz 1" NumberOfComponents="1" format="ascii" type="Float32">0.00667185 -0.0237007 0.00667185 -0.0178214 -0.0149867 -0.0178214 -0.00731094 -0.0106929 -0.0106929 0.0255211 -0.00485144 -0.0412868 -0.00809001 -0.00525524 -0.00242048 -0.00525524 -0.00344591 -0.00315315 -0.149795 -0.0918141 -0.149795 -0.0939134 -0.0939134 -0.0939134 -0.0898216 -0.0931983 -0.0681772 </DataArray>
<DataArray Name="Uz 2" NumberOfComponents="1" format="ascii" type="Float32">-0.0237007 -0.0601361 -0.020136 -0.0178214 -0.0283319 -0.0178214 -0.0106929 -0.0104001 -0.00594047 -0.0109143 -0.0412868 -0.00756981 0.00525524 -0.00525524 -0.0157657 -0.00286038 -0.00315315 -0.00175175 -0.0918141 -0.149795 -0.125248 -0.0898216 -0.0898216 -0.0898216 -0.0931983 -0.0931983 -0.0829823 </DataArray>
</PointData>
<CellData/>
</Piece>
</UnstructuredGrid>
</VTKFile>
