<?xml version="1.0" ?>
<VTKFile byte_order="LittleEndian" type="UnstructuredGrid" version="0.1">
<UnstructuredGrid>
<Piece NumberOfCells="8" NumberOfPoints="27">
<Points>
<DataArray Name="vertices" NumberOfComponents="3" format="ascii" type="Float32">0 0 0 -0.0124645 -0.0124645 1.93598 2 0 0 2.01246 -0.0124645 1.93598 2 2 0 2.01246 2.01246 1.93598 0 2 0 -0.0124645 2.01246 1.93598 -0.0162764 -0.0162764 0.978605 2.01628 -0.0162764 0.978605 1 0 0 1 -0.0114034 1.9691 2.01628 2.01628 0.978605 2 1 0 2.0114 1 1.9691 -0.0162764 2.01628 0.978605 1 2 0 1 2.0114 1.9691 0 1 0 -0.0114034 1 1.9691 1 -0.0113941 0.98521 2.01139 1 0.98521 1 2.01139 0.98521 -0.0113941 1 0.98521 1 1 0 1 1 1.97247 1 1 0.988998 </DataArray>
</Points>
<Cells>
<DataArray Name="connectivity" format="ascii" type="Int32">0 10 20 8 18 24 26 23 18 24 26 23 6 16 22 15 10 2 9 20 24 13 21 26 24 13 21 26 16 4 12 22 8 20 11 1 23 26 25 19 23 26 25 19 15 22 17 7 20 9 3 11 26 21 14 25 26 21 14 25 22 12 5 17 </DataArray>
<DataArray Name="offsets" format="ascii" type="Int32">8 16 24 32 40 48 56 64 </DataArray>
<DataArray Name="types" format="ascii" type="UInt8">12 12 12 12 12 12 12 12 </DataArray>
</Cells>
<PointData>
<DataArray Name="Uz 0" NumberOfComponents="1" format="ascii" type="Float32">-0.0159478 -0.0315224 -0.0159478 -0.0080359 -0.0080359 -0.0127213 -0.0107603 -0.00621972 -0.00622715 -0.00458326 0.0117511 -0.00382342 -0.00514492 -0.00045954 -0.00045954 -0.00280223 -0.00168134 -0.00168134 -0.0451137 -0.063231 -0.0451137 -0.0575876 -0.0575876 -0.0575876 -0.0480198 -0.0463914 -0.0486842 </DataArray>
<DataArray Name="Uz 1" NumberOfComponents="1" format="ascii" type="Float32">0.000386599 -0.015188 0.000386599 -0.0103786 -0.00999683 -0.0103786 -0.00477413 -0.00622715 -0.00622715 0.0117511 -0.00382342 -0.0201578 -0.00318399 -0.00280223 -0.00242047 -0.00280223 -0.0016739 -0.00168134 -0.063231 -0.0451137 -0.063231 -0.0480198 -0.0480198 -0.0480198 -0.043523 -0.0463914 -0.0357374 </DataArray>
<DataArray Name="Uz 2" NumberOfComponents="1" format="ascii" type="Float32">-0.015188 -0.0315224 -0.0127213 -0.0103786 -0.015983 -0.0103786 -0.00622715 -0.00623459 -0.00345953 -0.00458326 -0.0201578 -0.00514492 0.00280223 -0.00280223 -0.00840669 -0.00168877 -0.00168134 -0.000934076 -0.0451137 -0.063231 -0.0575876 -0.043523 -0.043523 -0.043523 -0.0463914 -0.0463914 -0.0425521 </DataArray>
</PointData>
<CellData/>
</Piece>
</UnstructuredGrid>
</VTKFile>
