<?xml version="1.0" ?>
<VTKFile byte_order="LittleEndian" type="UnstructuredGrid" version="0.1">
<UnstructuredGrid>
<Piece NumberOfCells="8" NumberOfPoints="27">
<Points>
<DataArray Name="vertices" NumberOfComponents="3" format="ascii" type="Float32">0 0 0 -0.0520626 -0.0520626 1.71915 2 0 0 2.05206 -0.0520626 1.71915 2 2 0 2.05206 2.05206 1.71915 0 2 0 -0.0520626 2.05206 1.71915 -0.0650752 -0.0650752 0.913627 2.06508 -0.0650752 0.913627 1 0 0 1 -0.0427697 1.87396 2.06508 2.06508 0.913627 2 1 0 2.04277 1 1.87396 -0.0650752 2.06508 0.913627 1 2 0 1 2.04277 1.87396 0 1 0 -0.0427697 1 1.87396 1 -0.0444706 0.938347 2.04447 1 0.938347 1 2.04447 0.938347 -0.0444706 1 0.938347 1 1 0 1 1 1.88413 1 1 0.951936 </DataArray>
</Points>
<Cells>
<DataArray Name="connectivity" format="ascii" type="Int32">0 10 20 8 18 24 26 23 18 24 26 23 6 16 22 15 10 2 9 20 24 13 21 26 24 13 21 26 16 4 12 22 8 20 11 1 23 26 25 19 23 26 25 19 15 22 17 7 20 9 3 11 26 21 14 25 26 21 14 25 22 12 5 17 </DataArray>
<DataArray Name="offsets" format="ascii" type="Int32">8 16 24 32 40 48 56 64 </DataArray>
<DataArray Name="types" format="ascii" type="UInt8">12 12 12 12 12 12 12 12 </DataArray>
</Cells>
<PointData>
<DataArray Name="Uz 0" NumberOfComponents="1" format="ascii" type="Float32">3916.42 -14521.6 3651.08 -3951.9 8996.9 -3951.9 2522.5 1513.5 1513.5 -39851 -60489.7 -39851 -14893.7 -14893.7 -14893.7 -47187.4 38654.7 -50041.6 -2234.8 -28269.9 8627.13 3212.08 1049.47 1049.47 2130.78 1278.47 1278.47 </DataArray>
<DataArray Name="Uz 1" NumberOfComponents="1" format="ascii" type="Float32">22089.1 3916.42 -14521.6 2522.5 2522.5 2522.5 2522.5 1513.5 1513.5 -60489.7 -39851 -60489.7 -47102.4 -47187.4 -47102.4 32218.8 31052.1 22061.6 -28269.9 8627.13 34662.2 -2769.17 2130.78 7030.72 2130.78 2752.88 1278.47 </DataArray>
<DataArray Name="Uz 2" NumberOfComponents="1" format="ascii" type="Float32">3651.08 22089.1 8996.9 2522.5 2522.5 2522.5 1513.5 1513.5 840.834 -39851 -60489.7 -14893.7 18160.2 32218.8 18160.2 31052.1 38654.7 24985.8 -2234.8 34662.2 3212.08 -2130.78 2130.78 6392.33 -195.945 1278.47 710.259 </DataArray>
</PointData>
<CellData/>
</Piece>
</UnstructuredGrid>
</VTKFile>
