<?xml version="1.0" ?>
<VTKFile byte_order="LittleEndian" type="UnstructuredGrid" version="0.1">
<UnstructuredGrid>
<Piece NumberOfCells="8" NumberOfPoints="27">
<Points>
<DataArray Name="vertices" NumberOfComponents="3" format="ascii" type="Float32">0 0 0 -0.0520626 -0.0520626 1.71915 2 0 0 2.05206 -0.0520626 1.71915 2 2 0 2.05206 2.05206 1.71915 0 2 0 -0.0520626 2.05206 1.71915 -0.0650752 -0.0650752 0.913627 2.06508 -0.0650752 0.913627 1 0 0 1 -0.0427697 1.87396 2.06508 2.06508 0.913627 2 1 0 2.04277 1 1.87396 -0.0650752 2.06508 0.913627 1 2 0 1 2.04277 1.87396 0 1 0 -0.0427697 1 1.87396 1 -0.0444706 0.938347 2.04447 1 0.938347 1 2.04447 0.938347 -0.0444706 1 0.938347 1 1 0 1 1 1.88413 1 1 0.951936 </DataArray>
</Points>
<Cells>
<DataArray Name="connectivity" format="ascii" type="Int32">0 10 20 8 18 24 26 23 18 24 26 23 6 16 22 15 10 2 9 20 24 13 21 26 24 13 21 26 16 4 12 22 8 20 11 1 23 26 25 19 23 26 25 19 15 22 17 7 20 9 3 11 26 21 14 25 26 21 14 25 22 12 5 17 </DataArray>
<DataArray Name="offsets" format="ascii" type="Int32">8 16 24 32 40 48 56 64 </DataArray>
<DataArray Name="types" format="ascii" type="UInt8">12 12 12 12 12 12 12 12 </DataArray>
</Cells>
<PointData>
<DataArray Name="Uz 0" NumberOfComponents="1" format="ascii" type="Float32">0.0260313 0.0520626 0.0260313 0.0607377 0.0607377 0.0607377 0.0173542 0.045989 0.0104125 0.00232321 -0.00232321 0.00232321 -0.0121876 0.0152852 -0.0121876 0.0015488 0.000929283 0.000929283 -0.054971 -0.0806575 -0.054971 -0.0253642 -0.0253642 -0.0262386 -0.040625 -0.0123626 -0.0154809 </DataArray>
<DataArray Name="Uz 1" NumberOfComponents="1" format="ascii" type="Float32">0.0520626 0.0260313 0.0520626 0.0173542 0.0173542 0.0173542 0.0458674 0.0624727 0.0446283 0.00696962 0.00232321 -0.00232321 0.0015488 0.0015488 0.0015488 0.0015488 0.000929283 0.000929283 0.00325316 -0.0224334 0.00325316 -0.0258014 -0.0109779 -0.0258014 -0.0218442 -0.0154809 -0.0154809 </DataArray>
<DataArray Name="Uz 2" NumberOfComponents="1" format="ascii" type="Float32">0.0260313 0.0520626 0.0607377 0.0520626 0.0458674 0.0520626 0.0624727 0.045989 0.0453142 0.00232321 0.00696962 0.0152852 0.0015488 0.0015488 0.0015488 0.000929283 0.000929283 0.000516268 -0.0224334 -0.0806575 -0.0262386 -0.0258014 -0.0297587 -0.0258014 -0.0154809 -0.0185991 -0.00860048 </DataArray>
</PointData>
<CellData/>
</Piece>
</UnstructuredGrid>
</VTKFile>
