<?xml version="1.0" ?>
<VTKFile byte_order="LittleEndian" type="UnstructuredGrid" version="0.1">
<UnstructuredGrid>
<Piece NumberOfCells="8" NumberOfPoints="27">
<Points>
<DataArray Name="vertices" NumberOfComponents="3" format="ascii" type="Float32">0 0 0 -0.0124645 -0.0124645 1.93598 2 0 0 2.01246 -0.0124645 1.93598 2 2 0 2.01246 2.01246 1.93598 0 2 0 -0.0124645 2.01246 1.93598 -0.0162764 -0.0162764 0.978605 2.01628 -0.0162764 0.978605 1 0 0 1 -0.0114034 1.9691 2.01628 2.01628 0.978605 2 1 0 2.0114 1 1.9691 -0.0162764 2.01628 0.978605 1 2 0 1 2.0114 1.9691 0 1 0 -0.0114034 1 1.9691 1 -0.0113941 0.98521 2.01139 1 0.98521 1 2.01139 0.98521 -0.0113941 1 0.98521 1 1 0 1 1 1.97247 1 1 0.988998 </DataArray>
</Points>
<Cells>
<DataArray Name="connectivity" format="ascii" type="Int32">0 10 20 8 18 24 26 23 18 24 26 23 6 16 22 15 10 2 9 20 24 13 21 26 24 13 21 26 16 4 12 22 8 20 11 1 23 26 25 19 23 26 25 19 15 22 17 7 20 9 3 11 26 21 14 25 26 21 14 25 22 12 5 17 </DataArray>
<DataArray Name="offsets" format="ascii" type="Int32">8 16 24 32 40 48 56 64 </DataArray>
<DataArray Name="types" format="ascii" type="UInt8">12 12 12 12 12 12 12 12 </DataArray>
</Cells>
<PointData>
<DataArray Name="Uz 0" NumberOfComponents="1" format="ascii" type="Float32">0.00623227 0.0124645 0.00623227 0.0150058 0.0150058 0.0150058 0.00415485 0.0116082 0.00249291 0.000265281 -0.000265281 0.000265281 -0.00307799 0.0034317 -0.00307799 0.000176854 0.000106112 0.000106112 -0.0123481 -0.0175109 -0.0123481 -0.00564368 -0.00564368 -0.00539497 -0.00931737 -0.002546 -0.00331159 </DataArray>
<DataArray Name="Uz 1" NumberOfComponents="1" format="ascii" type="Float32">0.0124645 0.00623227 0.0124645 0.00415485 0.00415485 0.00415485 0.0117571 0.015514 0.0116156 0.000795843 0.000265281 -0.000265281 0.000176854 0.000176854 0.000176854 0.000176854 0.000106112 0.000106112 0.000952963 -0.00420989 0.000952963 -0.00551932 -0.00172128 -0.00551932 -0.00439776 -0.00331159 -0.00331159 </DataArray>
<DataArray Name="Uz 2" NumberOfComponents="1" format="ascii" type="Float32">0.00623227 0.0124645 0.0150058 0.0124645 0.0117571 0.0124645 0.015514 0.0116082 0.0115131 0.000265281 0.000795843 0.0034317 0.000176854 0.000176854 0.000176854 0.000106112 0.000106112 5.89513e-05 -0.00420989 -0.0175109 -0.00539497 -0.00551932 -0.00664089 -0.00551932 -0.00331159 -0.00407719 -0.00183977 </DataArray>
</PointData>
<CellData/>
</Piece>
</UnstructuredGrid>
</VTKFile>
