<?xml version="1.0" ?>
<VTKFile byte_order="LittleEndian" type="UnstructuredGrid" version="0.1">
<UnstructuredGrid>
<Piece NumberOfCells="8" NumberOfPoints="27">
<Points>
<DataArray Name="vertices" NumberOfComponents="3" format="ascii" type="Float32">0 0 0 -0.0520626 -0.0520626 1.71915 2 0 0 2.05206 -0.0520626 1.71915 2 2 0 2.05206 2.05206 1.71915 0 2 0 -0.0520626 2.05206 1.71915 -0.0650752 -0.0650752 0.913627 2.06508 -0.0650752 0.913627 1 0 0 1 -0.0427697 1.87396 2.06508 2.06508 0.913627 2 1 0 2.04277 1 1.87396 -0.0650752 2.06508 0.913627 1 2 0 1 2.04277 1.87396 0 1 0 -0.0427697 1 1.87396 1 -0.0444706 0.938347 2.04447 1 0.938347 1 2.04447 0.938347 -0.0444706 1 0.938347 1 1 0 1 1 1.88413 1 1 0.951936 </DataArray>
</Points>
<Cells>
<DataArray Name="connectivity" format="ascii" type="Int32">0 10 20 8 18 24 26 23 18 24 26 23 6 16 22 15 10 2 9 20 24 13 21 26 24 13 21 26 16 4 12 22 8 20 11 1 23 26 25 19 23 26 25 19 15 22 17 7 20 9 3 11 26 21 14 25 26 21 14 25 22 12 5 17 </DataArray>
<DataArray Name="offsets" format="ascii" type="Int32">8 16 24 32 40 48 56 64 </DataArray>
<DataArray Name="types" format="ascii" type="UInt8">12 12 12 12 12 12 12 12 </DataArray>
</Cells>
<PointData>
<DataArray Name="Uz 0" NumberOfComponents="1" format="ascii" type="Float32">-145992 -291985 -145992 -73716.6 -73716.6 -120940 -97328.2 -65336.5 -58396.9 -53341.1 92651.2 -53341.1 -59172.4 -11949.1 -11949.1 -35560.7 -21336.4 -21336.4 -504641 -613866 -504641 -595617 -595617 -595617 -546412 -507913 -558722 </DataArray>
<DataArray Name="Uz 1" NumberOfComponents="1" format="ascii" type="Float32">0 -145992 -1.16415e-10 -97328.2 -97328.2 -97328.2 -26206.7 -58396.9 -58396.9 92651.2 -53341.1 -199333 -35560.7 -35560.7 -35560.7 -35560.7 -28276.1 -21336.4 -613866 -504641 -613866 -546412 -546412 -546412 -450165 -507913 -371759 </DataArray>
<DataArray Name="Uz 2" NumberOfComponents="1" format="ascii" type="Float32">-145992 -291985 -120940 -97328.2 -168450 -97328.2 -58396.9 -51457.3 -32442.7 -53341.1 -199333 -59172.4 35560.7 -35560.7 -106682 -14396.8 -21336.4 -11853.6 -504641 -613866 -595617 -450165 -450165 -450165 -507913 -507913 -466915 </DataArray>
</PointData>
<CellData/>
</Piece>
</UnstructuredGrid>
</VTKFile>
