<?xml version="1.0" ?>
<VTKFile byte_order="LittleEndian" type="UnstructuredGrid" version="0.1">
<UnstructuredGrid>
<Piece NumberOfCells="8" NumberOfPoints="27">
<Points>
<DataArray Name="vertices" NumberOfComponents="3" format="ascii" type="Float32">0 0 0 -0.0124645 -0.0124645 1.93598 2 0 0 2.01246 -0.0124645 1.93598 2 2 0 2.01246 2.01246 1.93598 0 2 0 -0.0124645 2.01246 1.93598 -0.0162764 -0.0162764 0.978605 2.01628 -0.0162764 0.978605 1 0 0 1 -0.0114034 1.9691 2.01628 2.01628 0.978605 2 1 0 2.0114 1 1.9691 -0.0162764 2.01628 0.978605 1 2 0 1 2.0114 1.9691 0 1 0 -0.0114034 1 1.9691 1 -0.0113941 0.98521 2.01139 1 0.98521 1 2.01139 0.98521 -0.0113941 1 0.98521 1 1 0 1 1 1.97247 1 1 0.988998 </DataArray>
</Points>
<Cells>
<DataArray Name="connectivity" format="ascii" type="Int32">0 10 20 8 18 24 26 23 18 24 26 23 6 16 22 15 10 2 9 20 24 13 21 26 24 13 21 26 16 4 12 22 8 20 11 1 23 26 25 19 23 26 25 19 15 22 17 7 20 9 3 11 26 21 14 25 26 21 14 25 22 12 5 17 </DataArray>
<DataArray Name="offsets" format="ascii" type="Int32">8 16 24 32 40 48 56 64 </DataArray>
<DataArray Name="types" format="ascii" type="UInt8">12 12 12 12 12 12 12 12 </DataArray>
</Cells>
<PointData>
<DataArray Name="Uz 0" NumberOfComponents="1" format="ascii" type="Float32">986.842 -2701.7 982.923 -897.062 2210.24 -897.062 656.588 393.953 393.953 -10807.9 -13200.2 -10807.9 -3006.54 -3006.54 -3006.54 -12570.6 8759.64 -13131.2 -932.167 -3882.04 2570.56 1561.14 -468.875 -468.875 546.131 327.678 327.678 </DataArray>
<DataArray Name="Uz 1" NumberOfComponents="1" format="ascii" type="Float32">4671.46 986.842 -2701.7 656.588 656.588 656.588 656.588 393.953 393.953 -13200.2 -10807.9 -13200.2 -12569.2 -12570.6 -12569.2 7015.36 6900.08 5871.21 -3882.04 2570.56 5520.43 -1071.57 546.131 2163.83 546.131 671.142 327.678 </DataArray>
<DataArray Name="Uz 2" NumberOfComponents="1" format="ascii" type="Float32">982.923 4671.46 2210.24 656.588 656.588 656.588 393.953 393.953 218.863 -10807.9 -13200.2 -3006.54 2739.58 7015.36 2739.58 6900.08 8759.64 6093.15 -932.167 5520.43 1561.14 -546.131 546.131 1638.39 -15.7854 327.678 182.044 </DataArray>
</PointData>
<CellData/>
</Piece>
</UnstructuredGrid>
</VTKFile>
