<?xml version="1.0" ?>
<VTKFile byte_order="LittleEndian" type="UnstructuredGrid" version="0.1">
<UnstructuredGrid>
<Piece NumberOfCells="8" NumberOfPoints="27">
<Points>
<DataArray Name="vertices" NumberOfComponents="3" format="ascii" type="Float32">0 0 0 -0.0520626 -0.0520626 1.71915 2 0 0 2.05206 -0.0520626 1.71915 2 2 0 2.05206 2.05206 1.71915 0 2 0 -0.0520626 2.05206 1.71915 -0.0650752 -0.0650752 0.913627 2.06508 -0.0650752 0.913627 1 0 0 1 -0.0427697 1.87396 2.06508 2.06508 0.913627 2 1 0 2.04277 1 1.87396 -0.0650752 2.06508 0.913627 1 2 0 1 2.04277 1.87396 0 1 0 -0.0427697 1 1.87396 1 -0.0444706 0.938347 2.04447 1 0.938347 1 2.04447 0.938347 -0.0444706 1 0.938347 1 1 0 1 1 1.88413 1 1 0.951936 </DataArray>
</Points>
<Cells>
<DataArray Name="connectivity" format="ascii" type="Int32">0 10 20 8 18 24 26 23 18 24 26 23 6 16 22 15 10 2 9 20 24 13 21 26 24 13 21 26 16 4 12 22 8 20 11 1 23 26 25 19 23 26 25 19 15 22 17 7 20 9 3 11 26 21 14 25 26 21 14 25 22 12 5 17 </DataArray>
<DataArray Name="offsets" format="ascii" type="Int32">8 16 24 32 40 48 56 64 </DataArray>
<DataArray Name="types" format="ascii" type="UInt8">12 12 12 12 12 12 12 12 </DataArray>
</Cells>
<PointData>
<DataArray Name="Uz 0" NumberOfComponents="1" format="ascii" type="Float32">-7765.43 29131.6 -7765.43 -2637.62 -2637.62 -475.003 -6456.25 540.625 -933.786 -2234.8 -28269.9 8627.13 3212.08 1049.47 1049.47 2130.78 1278.47 1278.47 -27547.8 26578.4 -27547.8 22027.5 22027.5 22027.5 -22429.2 37333 -19484 </DataArray>
<DataArray Name="Uz 1" NumberOfComponents="1" format="ascii" type="Float32">-33800.5 3096.5 -33800.5 -1556.31 3343.63 -1556.31 -5817.86 -933.786 -933.786 -28269.9 8627.13 34662.2 -2769.17 2130.78 7030.72 2130.78 2752.88 1278.47 26578.4 -27547.8 26578.4 -22429.2 -22429.2 -22429.2 19243.3 37333 880.115 </DataArray>
<DataArray Name="Uz 2" NumberOfComponents="1" format="ascii" type="Float32">3096.5 29131.6 -475.003 -1556.31 2705.24 -1556.31 -933.786 -2408.2 -518.77 -2234.8 34662.2 3212.08 -2130.78 2130.78 6392.33 -195.945 1278.47 710.259 -27547.8 26578.4 22027.5 19243.3 19243.3 19243.3 37333 37333 23787.4 </DataArray>
</PointData>
<CellData/>
</Piece>
</UnstructuredGrid>
</VTKFile>
