<?xml version="1.0" ?>
<VTKFile byte_order="LittleEndian" type="UnstructuredGrid" version="0.1">
<UnstructuredGrid>
<Piece NumberOfCells="8" NumberOfPoints="27">
<Points>
<DataArray Name="vertices" NumberOfComponents="3" format="ascii" type="Float32">0 0 0 -0.0124645 -0.0124645 1.93598 2 0 0 2.01246 -0.0124645 1.93598 2 2 0 2.01246 2.01246 1.93598 0 2 0 -0.0124645 2.01246 1.93598 -0.0162764 -0.0162764 0.978605 2.01628 -0.0162764 0.978605 1 0 0 1 -0.0114034 1.9691 2.01628 2.01628 0.978605 2 1 0 2.0114 1 1.9691 -0.0162764 2.01628 0.978605 1 2 0 1 2.0114 1.9691 0 1 0 -0.0114034 1 1.9691 1 -0.0113941 0.98521 2.01139 1 0.98521 1 2.01139 0.98521 -0.0113941 1 0.98521 1 1 0 1 1 1.97247 1 1 0.988998 </DataArray>
</Points>
<Cells>
<DataArray Name="connectivity" format="ascii" type="Int32">0 10 20 8 18 24 26 23 18 24 26 23 6 16 22 15 10 2 9 20 24 13 21 26 24 13 21 26 16 4 12 22 8 20 11 1 23 26 25 19 23 26 25 19 15 22 17 7 20 9 3 11 26 21 14 25 26 21 14 25 22 12 5 17 </DataArray>
<DataArray Name="offsets" format="ascii" type="Int32">8 16 24 32 40 48 56 64 </DataArray>
<DataArray Name="types" format="ascii" type="UInt8">12 12 12 12 12 12 12 12 </DataArray>
</Cells>
<PointData>
<DataArray Name="Uz 0" NumberOfComponents="1" format="ascii" type="Float32">-100482 -200964 -100482 -49940.4 -49940.4 -84035.5 -66988 -40663.1 -40192.8 -27972.5 72509.5 -27972.5 -35695.9 -1600.79 -1600.79 -18648.3 -11189 -11189 -287056 -384000 -287056 -357126 -357126 -357126 -309545 -294020 -316837 </DataArray>
<DataArray Name="Uz 1" NumberOfComponents="1" format="ascii" type="Float32">-5.82077e-11 -100482 0 -66988 -66988 -66988 -29691.3 -40192.8 -40192.8 72509.5 -27972.5 -128454 -18648.3 -18648.3 -18648.3 -18648.3 -11659.3 -11189 -384000 -287056 -384000 -309545 -309545 -309545 -270732 -294020 -226447 </DataArray>
<DataArray Name="Uz 2" NumberOfComponents="1" format="ascii" type="Float32">-100482 -200964 -84035.5 -66988 -104285 -66988 -40192.8 -39722.5 -22329.3 -27972.5 -128454 -35695.9 18648.3 -18648.3 -55945 -10718.7 -11189 -6216.11 -287056 -384000 -357126 -270732 -270732 -270732 -294020 -294020 -271743 </DataArray>
</PointData>
<CellData/>
</Piece>
</UnstructuredGrid>
</VTKFile>
