<?xml version="1.0" ?>
<VTKFile byte_order="LittleEndian" type="UnstructuredGrid" version="0.1">
<UnstructuredGrid>
<Piece NumberOfCells="8" NumberOfPoints="27">
<Points>
<DataArray Name="vertices" NumberOfComponents="3" format="ascii" type="Float32">2.88582e-05 1.59536 10.0986 0 0 0 -0.000373763 3.54089 9.63606 0 2 0 1.99997 1.59536 10.0986 2 0 0 2.00037 3.54089 9.63606 2 2 0 0.0132091 0.506767 5.15148 1.24711e-05 2.56688 9.86796 -0.0138285 2.48238 4.81583 0 1 0 1.98679 0.506767 5.15148 1.99999 2.56688 9.86796 2.01383 2.48238 4.81583 2 1 0 1 0 0 1 1.59377 10.0998 1 2 0 1 3.53907 9.63494 -0.0003512 1.4889 4.98355 2.00035 1.4889 4.98355 1 0.513758 5.15014 1 2.48948 4.81509 1 1 0 1 2.5657 9.86793 1 1.49578 4.98255 </DataArray>
</Points>
<Cells>
<DataArray Name="connectivity" format="ascii" type="Int32">0 9 20 8 17 25 26 22 17 25 26 22 4 13 21 12 9 2 10 20 25 19 23 26 25 19 23 26 13 6 14 21 8 20 11 1 22 26 24 16 22 26 24 16 12 21 15 5 20 10 3 11 26 23 18 24 26 23 18 24 21 14 7 15 </DataArray>
<DataArray Name="offsets" format="ascii" type="Int32">8 16 24 32 40 48 56 64 </DataArray>
<DataArray Name="types" format="ascii" type="UInt8">12 12 12 12 12 12 12 12 </DataArray>
</Cells>
<PointData>
<DataArray Name="Uz 0" NumberOfComponents="1" format="ascii" type="Float32">-7263.5 -7749.45 -7293.56 390.227 -336.299 403.88 134.627 -337.88 80.776 867990 558486 848585 960263 774374 562237 562682 789577 568566 5.42789e+06 5.38894e+06 5.33934e+06 5.34575e+06 5.57617e+06 5.49879e+06 5.35168e+06 5.39534e+06 5.49774e+06 </DataArray>
<DataArray Name="Uz 1" NumberOfComponents="1" format="ascii" type="Float32">7797.2 7667.38 8153.33 258.667 -120.974 134.627 134.627 80.776 80.776 572510 867990 558486 730780 960263 581294 937770 816469 1.03265e+06 5.60877e+06 5.42789e+06 5.38894e+06 5.25344e+06 5.34575e+06 5.64427e+06 5.28845e+06 5.59339e+06 5.31715e+06 </DataArray>
<DataArray Name="Uz 2" NumberOfComponents="1" format="ascii" type="Float32">7697.44 -7393.32 605.553 -134.627 10.5867 134.627 499.432 80.776 44.8756 848585 572510 774374 562237 730780 963144 789577 763830 814532 5.33934e+06 5.60877e+06 5.57617e+06 5.49879e+06 5.25344e+06 5.4057e+06 5.39534e+06 5.20354e+06 5.38423e+06 </DataArray>
</PointData>
<CellData/>
</Piece>
</UnstructuredGrid>
</VTKFile>
