<?xml version="1.0" ?>
<VTKFile byte_order="LittleEndian" type="UnstructuredGrid" version="0.1">
<UnstructuredGrid>
<Piece NumberOfCells="125" NumberOfPoints="216">
<Points>
<DataArray Name="vertices" NumberOfComponents="3" format="ascii" type="Float32">0.00126971 3.30421 9.85826 0 0 0 -9.99735e-05 5.07446 8.92956 0 2 0 1.99873 3.30421 9.85826 2 0 0 2.0001 5.07446 8.92956 2 2 0 0.0337168 0.200829 2.15684 0.0210127 0.718432 4.23981 0.0147042 1.47104 6.20506 0.00746597 2.35725 8.06717 0.00126809 3.65563 9.6714 0.000746771 4.00916 9.48687 0.000243808 4.36401 9.30264 -0.000226778 4.71947 9.11732 -0.0349643 2.17449 1.83615 -0.0222301 2.62639 3.64449 -0.0142032 3.31073 5.42185 -0.00692244 4.14752 7.17724 0 0.4 0 0 0.8 0 0 1.2 0 0 1.6 0 1.96628 0.200829 2.15684 1.97899 0.718432 4.23981 1.9853 1.47104 6.20506 1.99253 2.35725 8.06717 1.99873 3.65563 9.6714 1.99925 4.00916 9.48687 1.99976 4.36401 9.30264 2.00023 4.71947 9.11732 2.03496 2.17449 1.83615 2.02223 2.62639 3.64449 2.0142 3.31073 5.42185 2.00692 4.14752 7.17724 2 0.4 0 2 0.8 0 2 1.2 0 2 1.6 0 0.4 0 0 0.8 0 0 1.2 0 0 1.6 0 0 0.400661 3.30304 9.85868 0.800214 3.30269 9.85864 1.19979 3.30269 9.85864 1.59934 3.30304 9.85868 0.4 2 0 0.8 2 0 1.2 2 0 1.6 2 0 0.400041 5.07302 8.92927 0.800017 5.07279 8.92927 1.19998 5.07279 8.92927 1.59996 5.07302 8.92927 0.0192891 0.584557 2.09091 0.00552894 0.973891 2.02902 -0.00794306 1.36857 1.96787 -0.0211362 1.76866 1.90451 0.0126147 1.09393 4.12147 0.00420295 1.47252 4.00412 -0.00432214 1.85435 3.88654 -0.0129923 2.23917 3.76722 0.00869468 1.83413 6.04854 0.00299484 2.20032 5.89364 -0.00262474 2.56884 5.73858 -0.00824966 2.93915 5.58193 0.00449449 2.7129 7.88841 0.00172935 3.07056 7.71163 -0.00104325 3.42944 7.53527 -0.0038432 3.78873 7.35775 1.99551 2.7129 7.88841 1.99827 3.07056 7.71163 2.00104 3.42944 7.53527 2.00384 3.78873 7.35775 1.99131 1.83413 6.04854 1.99701 2.20032 5.89364 2.00262 2.56884 5.73858 2.00825 2.93915 5.58193 1.98739 1.09393 4.12147 1.9958 1.47252 4.00412 2.00432 1.85435 3.88654 2.01299 2.23917 3.76722 1.98071 0.584557 2.09091 1.99447 0.973891 2.02902 2.00794 1.36857 1.96787 2.02114 1.76866 1.90451 0.419602 0.21148 2.15361 0.412718 0.725151 4.23893 0.408664 1.47541 6.20371 0.404463 2.35994 8.06663 0.806405 0.21644 2.15271 0.804258 0.728382 4.2379 0.802867 1.47752 6.20302 0.801481 2.36104 8.06612 1.1936 0.21644 2.15271 1.19574 0.728382 4.2379 1.19713 1.47752 6.20302 1.19852 2.36104 8.06612 1.5804 0.21148 2.15361 1.58728 0.725151 4.23893 1.59134 1.47541 6.20371 1.59554 2.35994 8.06663 1.62056 2.18536 1.83638 1.61365 2.63321 3.64044 1.60841 3.31458 5.41937 1.60419 4.14966 7.17543 1.20678 2.1905 1.83554 1.20459 2.63676 3.63929 1.2028 3.3166 5.41819 1.20139 4.15069 7.17481 0.793222 2.1905 1.83554 0.79541 2.63676 3.63929 0.7972 3.3166 5.41819 0.798607 4.15069 7.17481 0.379441 2.18536 1.83638 0.386351 2.63321 3.64044 0.391592 3.31458 5.41937 0.39581 4.14966 7.17543 0.4 0.4 0 0.8 0.4 0 1.2 0.4 0 1.6 0.4 0 0.4 0.8 0 0.8 0.8 0 1.2 0.8 0 1.6 0.8 0 0.4 1.2 0 0.8 1.2 0 1.2 1.2 0 1.6 1.2 0 0.4 1.6 0 0.8 1.6 0 1.2 1.6 0 1.6 1.6 0 0.399844 4.71846 9.11699 0.799961 4.71808 9.11684 1.20004 4.71808 9.11684 1.60016 4.71846 9.11699 0.400123 4.36336 9.30246 0.800038 4.36307 9.30238 1.19996 4.36307 9.30238 1.59988 4.36336 9.30246 0.400497 4.00865 9.48697 0.800176 4.00842 9.48703 1.19982 4.00842 9.48703 1.5995 4.00865 9.48697 0.400819 3.65504 9.67187 0.800266 3.65475 9.67201 1.19973 3.65475 9.67201 1.59918 3.65504 9.67187 0.402678 2.71542 7.88782 0.800893 2.7166 7.88742 1.19911 2.7166 7.88742 1.59732 2.71542 7.88782 0.40101 3.07284 7.71071 0.800333 3.07397 7.71022 1.19967 3.07397 7.71022 1.59899 3.07284 7.71071 0.399357 3.43155 7.53398 0.799782 3.4326 7.53334 1.20022 3.4326 7.53334 1.60064 3.43155 7.53398 0.397657 3.79074 7.35604 0.79921 3.79175 7.3553 1.20079 3.79175 7.3553 1.60234 3.79074 7.35604 0.405179 1.8385 6.04711 0.801724 1.84062 6.04643 1.19828 1.84062 6.04643 1.59482 1.8385 6.04711 0.401768 2.20453 5.89193 0.800591 2.20664 5.89108 1.19941 2.20664 5.89108 1.59823 2.20453 5.89193 0.398438 2.57287 5.73654 0.799476 2.5749 5.73546 1.20052 2.5749 5.73546 1.60156 2.57287 5.73654 0.395068 2.94305 5.57955 0.798354 2.945 5.57833 1.20165 2.945 5.57833 1.60493 2.94305 5.57955 0.407641 1.10069 4.12041 0.802557 1.1041 4.11958 1.19744 1.1041 4.11958 1.59236 1.10069 4.12041 0.402494 1.47916 4.00223 0.800826 1.48259 4.00124 1.19917 1.48259 4.00124 1.59751 1.47916 4.00223 0.397282 1.86091 3.88374 0.79907 1.86436 3.88248 1.20093 1.86436 3.88248 1.60272 1.86091 3.88374 0.391933 2.24575 3.76345 0.797264 2.24922 3.76202 1.20274 2.24922 3.76202 1.60807 2.24575 3.76345 0.411277 0.595043 2.08789 0.803715 0.599828 2.08677 1.19628 0.599828 2.08677 1.58872 0.595043 2.08789 0.403087 0.984218 2.02693 0.801007 0.989026 2.02601 1.19899 0.989026 2.02601 1.59691 0.984218 2.02693 0.395147 1.37883 1.96683 0.798375 1.38369 1.96623 1.20163 1.38369 1.96623 1.60485 1.37883 1.96683 0.387326 1.7791 1.90457 0.795794 1.78406 1.90416 1.20421 1.78406 1.90416 1.61267 1.7791 1.90457 </DataArray>
</Points>
<Cells>
<DataArray Name="connectivity" format="ascii" type="Int32">0 12 68 11 44 148 152 91 44 148 152 91 45 149 153 95 45 149 153 95 46 150 154 99 46 150 154 99 47 151 155 103 47 151 155 103 4 28 72 27 12 13 69 68 148 144 156 152 148 144 156 152 149 145 157 153 149 145 157 153 150 146 158 154 150 146 158 154 151 147 159 155 151 147 159 155 28 29 73 72 13 14 70 69 144 140 160 156 144 140 160 156 145 141 161 157 145 141 161 157 146 142 162 158 146 142 162 158 147 143 163 159 147 143 163 159 29 30 74 73 14 15 71 70 140 136 164 160 140 136 164 160 141 137 165 161 141 137 165 161 142 138 166 162 142 138 166 162 143 139 167 163 143 139 167 163 30 31 75 74 15 2 19 71 136 52 119 164 136 52 119 164 137 53 115 165 137 53 115 165 138 54 111 166 138 54 111 166 139 55 107 167 139 55 107 167 31 6 35 75 11 68 64 10 91 152 168 90 91 152 168 90 95 153 169 94 95 153 169 94 99 154 170 98 99 154 170 98 103 155 171 102 103 155 171 102 27 72 76 26 68 69 65 64 152 156 172 168 152 156 172 168 153 157 173 169 153 157 173 169 154 158 174 170 154 158 174 170 155 159 175 171 155 159 175 171 72 73 77 76 69 70 66 65 156 160 176 172 156 160 176 172 157 161 177 173 157 161 177 173 158 162 178 174 158 162 178 174 159 163 179 175 159 163 179 175 73 74 78 77 70 71 67 66 160 164 180 176 160 164 180 176 161 165 181 177 161 165 181 177 162 166 182 178 162 166 182 178 163 167 183 179 163 167 183 179 74 75 79 78 71 19 18 67 164 119 118 180 164 119 118 180 165 115 114 181 165 115 114 181 166 111 110 182 166 111 110 182 167 107 106 183 167 107 106 183 75 35 34 79 10 64 60 9 90 168 184 89 90 168 184 89 94 169 185 93 94 169 185 93 98 170 186 97 98 170 186 97 102 171 187 101 102 171 187 101 26 76 80 25 64 65 61 60 168 172 188 184 168 172 188 184 169 173 189 185 169 173 189 185 170 174 190 186 170 174 190 186 171 175 191 187 171 175 191 187 76 77 81 80 65 66 62 61 172 176 192 188 172 176 192 188 173 177 193 189 173 177 193 189 174 178 194 190 174 178 194 190 175 179 195 191 175 179 195 191 77 78 82 81 66 67 63 62 176 180 196 192 176 180 196 192 177 181 197 193 177 181 197 193 178 182 198 194 178 182 198 194 179 183 199 195 179 183 199 195 78 79 83 82 67 18 17 63 180 118 117 196 180 118 117 196 181 114 113 197 181 114 113 197 182 110 109 198 182 110 109 198 183 106 105 199 183 106 105 199 79 34 33 83 9 60 56 8 89 184 200 88 89 184 200 88 93 185 201 92 93 185 201 92 97 186 202 96 97 186 202 96 101 187 203 100 101 187 203 100 25 80 84 24 60 61 57 56 184 188 204 200 184 188 204 200 185 189 205 201 185 189 205 201 186 190 206 202 186 190 206 202 187 191 207 203 187 191 207 203 80 81 85 84 61 62 58 57 188 192 208 204 188 192 208 204 189 193 209 205 189 193 209 205 190 194 210 206 190 194 210 206 191 195 211 207 191 195 211 207 81 82 86 85 62 63 59 58 192 196 212 208 192 196 212 208 193 197 213 209 193 197 213 209 194 198 214 210 194 198 214 210 195 199 215 211 195 199 215 211 82 83 87 86 63 17 16 59 196 117 116 212 196 117 116 212 197 113 112 213 197 113 112 213 198 109 108 214 198 109 108 214 199 105 104 215 199 105 104 215 83 33 32 87 8 56 20 1 88 200 120 40 88 200 120 40 92 201 121 41 92 201 121 41 96 202 122 42 96 202 122 42 100 203 123 43 100 203 123 43 24 84 36 5 56 57 21 20 200 204 124 120 200 204 124 120 201 205 125 121 201 205 125 121 202 206 126 122 202 206 126 122 203 207 127 123 203 207 127 123 84 85 37 36 57 58 22 21 204 208 128 124 204 208 128 124 205 209 129 125 205 209 129 125 206 210 130 126 206 210 130 126 207 211 131 127 207 211 131 127 85 86 38 37 58 59 23 22 208 212 132 128 208 212 132 128 209 213 133 129 209 213 133 129 210 214 134 130 210 214 134 130 211 215 135 131 211 215 135 131 86 87 39 38 59 16 3 23 212 116 48 132 212 116 48 132 213 112 49 133 213 112 49 133 214 108 50 134 214 108 50 134 215 104 51 135 215 104 51 135 87 32 7 39 </DataArray>
<DataArray Name="offsets" format="ascii" type="Int32">8 16 24 32 40 48 56 64 72 80 88 96 104 112 120 128 136 144 152 160 168 176 184 192 200 208 216 224 232 240 248 256 264 272 280 288 296 304 312 320 328 336 344 352 360 368 376 384 392 400 408 416 424 432 440 448 456 464 472 480 488 496 504 512 520 528 536 544 552 560 568 576 584 592 600 608 616 624 632 640 648 656 664 672 680 688 696 704 712 720 728 736 744 752 760 768 776 784 792 800 808 816 824 832 840 848 856 864 872 880 888 896 904 912 920 928 936 944 952 960 968 976 984 992 1000 </DataArray>
<DataArray Name="types" format="ascii" type="UInt8">12 12 12 12 12 12 12 12 12 12 12 12 12 12 12 12 12 12 12 12 12 12 12 12 12 12 12 12 12 12 12 12 12 12 12 12 12 12 12 12 12 12 12 12 12 12 12 12 12 12 12 12 12 12 12 12 12 12 12 12 12 12 12 12 12 12 12 12 12 12 12 12 12 12 12 12 12 12 12 12 12 12 12 12 12 12 12 12 12 12 12 12 12 12 12 12 12 12 12 12 12 12 12 12 12 12 12 12 12 12 12 12 12 12 12 12 12 12 12 12 12 12 12 12 12 </DataArray>
</Cells>
<PointData>
<DataArray Name="Uz 0" NumberOfComponents="1" format="ascii" type="Float32">-1534.01 -2085.73 -1813.51 -6359.76 -1228.04 4904.95 5325.87 2701.95 6823.46 8570.61 850.82 -328.668 -1469.51 5381.26 559.468 667.679 -2183.61 5771.11 535.175 -4691.58 -5980.29 1342.21 239.281 -1172.17 6040.33 -1855.37 1913.22 5523.6 7042.63 7016.22 -4141.49 -818.644 2047.15 2680.99 6293.99 -400.543 2435.85 -116.57 1989.31 2553.05 3499.29 -1346.79 860.267 727.075 -1665.07 3817.57 294.9 1294.46 353.455 1799.05 1767.46 -484.374 -844.995 2040.83 523.397 1250.39 -3478.26 4674.1 1353.7 442.791 1841.62 -645.782 2137.19 -375.543 -705.968 1901.8 543.32 -582.219 -3109.06 4304.9 1850.92 -742.05 623973 9153.47 602511 388429 821174 803687 545216 39261.6 143777 776100 809742 315078 53962 15975.2 76727 817203 10998.3 10998.3 789783 156675 448210 397880 695511 907744 918374 881565 695511 433506 160994 148100 741814 456949 169597 919869 741814 370346 139187 858352 644976 370346 65286.6 65286.6 49511.5 34796.1 20374.5 20374.5 951926 959680 969536 969536 972492 1.01006e+06 1.00126e+06 1.00126e+06 985020 969318 804946 804946 784530 764078 743234 743234 489669 473098 456703 456703 433183 177030 171906 171906 167630 163454 1.40687e+06 493273 1.36726e+06 1.32011e+06 1.70482e+06 1.67006e+06 1.40662e+06 494921 855650 1.69048e+06 1.68157e+06 1.11155e+06 515363 484886 576472 1.70492e+06 516900 516900 1.65737e+06 837552 1.44604e+06 1.29056e+06 1.68283e+06 1.88792e+06 1.91088e+06 1.83848e+06 1.68283e+06 1.39779e+06 882815 756897 1.80492e+06 1.4781e+06 941283 1.92565e+06 1.80492e+06 1.2286e+06 738123 1.80719e+06 1.58562e+06 1.2286e+06 545576 545576 531737 519473 508910 508910 1.90187e+06 1.91509e+06 1.93037e+06 1.93037e+06 1.94028e+06 2.06319e+06 2.03965e+06 2.03965e+06 2.01042e+06 1.9818e+06 1.9088e+06 1.9088e+06 1.8587e+06 1.80948e+06 1.75941e+06 1.75941e+06 1.54279e+06 1.48815e+06 1.43303e+06 1.43303e+06 1.36709e+06 941437 886626 886626 844305 799710 </DataArray>
<DataArray Name="Uz 1" NumberOfComponents="1" format="ascii" type="Float32">7203.61 6915.27 7466.99 -5492.99 702.239 -3681.49 6767.5 489.615 9947.26 4815.54 -1317.44 -1738.36 885.554 5483.14 -1895.64 2919.83 445.474 5561.38 -1973.88 -4589.61 -3371.1 -5049.81 2747.37 1447.47 3324.68 7202.32 -594.863 3041.98 6844.08 -2089.57 -3763.44 -662.639 2971.15 4242.08 5915.94 -1606.91 597.722 -283.345 2269.07 3759.42 1894.54 1721.58 430.921 1425.43 141.222 3347.72 -1195.22 858.039 851.795 -988.33 3140.83 1680.21 121.547 827.927 367.908 -54.5561 -759.236 -1670.92 2866.76 753.044 1029.02 -4041.16 5237 1571.38 157.374 778.078 417.757 1778.05 -625.071 -3151.39 4347.22 1937.89 57759.8 623973 9153.47 623956 815629 118117 724409 26752 388429 821174 803687 545216 39261.6 75002.9 75002.9 817203 12886.8 791889 791889 152380 433506 729947 674580 895555 907744 729947 674580 416931 156675 169309 922366 739799 456949 169309 922366 647047 368360 139187 858352 647047 67127.9 47668.4 47668.4 34796.1 22466.5 954836 954836 959680 966670 975525 975525 1.01006e+06 998502 987736 987736 969318 802692 786893 786893 764078 740860 491652 491652 473098 454515 435429 435429 177030 172248 167349 167349 163454 531135 1.40687e+06 493273 1.58842e+06 1.69346e+06 686211 1.5922e+06 484725 1.32011e+06 1.70482e+06 1.67006e+06 1.40662e+06 494921 566966 566966 1.70492e+06 526763 1.65881e+06 1.65881e+06 795804 1.39779e+06 1.77025e+06 1.63574e+06 1.86383e+06 1.88792e+06 1.77025e+06 1.63574e+06 1.34575e+06 837552 938196 1.92775e+06 1.80242e+06 1.4781e+06 938196 1.92775e+06 1.58747e+06 1.22508e+06 738123 1.80719e+06 1.58747e+06 556582 520679 520679 519473 520307 1.90398e+06 1.90398e+06 1.91509e+06 1.92827e+06 1.94246e+06 1.94246e+06 2.06319e+06 2.03749e+06 2.01253e+06 2.01253e+06 1.9818e+06 1.90635e+06 1.86122e+06 1.86122e+06 1.80948e+06 1.75714e+06 1.54567e+06 1.54567e+06 1.48815e+06 1.42929e+06 1.37112e+06 1.37112e+06 941437 891081 839784 839784 799710 </DataArray>
<DataArray Name="Uz 2" NumberOfComponents="1" format="ascii" type="Float32">7194.76 -1822.35 -3235.96 -4983.11 2736.68 3916.17 5057.02 -1793.75 9080.5 2885.27 7268.99 -3179.99 3097.89 3028.04 -1601.6 5189.11 3142.03 3052.33 -4890.12 -4863.72 -889.475 -2367.73 -3887.82 4007.88 705.031 4520.23 8132.79 810.29 6742.11 -4676.94 105.355 -528.486 2815.14 6829.44 5091.12 -2496.26 163.192 1554.78 -2938.62 4648.77 257.965 1292.24 61.387 2091.12 2011.28 1857.6 1727.51 424.995 1300.71 385.042 -2643.54 3839.38 1074.29 672.438 2527.6 -1331.77 1955.07 -157.87 107.061 1088.77 166.814 -941.351 -2326.62 3522.46 1038.46 652.515 -3085.67 4281.5 1820.91 -655.082 -3381.9 4577.74 602511 57759.8 143777 776100 809742 315078 53962 15975.2 623956 815629 118117 724409 26752 76727 819769 819769 12886.8 789783 160994 148100 416931 713842 918374 881565 895555 713842 448210 397880 152380 458774 169597 919869 739799 458774 138965 860617 644976 368360 138965 860617 67127.9 49511.5 32858.9 32858.9 22466.5 951926 962576 962576 966670 972492 1.01283e+06 1.01283e+06 998502 985020 972001 972001 802692 784530 766488 766488 740860 489669 475190 475190 454515 433183 176771 176771 172248 167630 163074 163074 1.36726e+06 531135 855650 1.69048e+06 1.68157e+06 1.11155e+06 515363 484886 1.58842e+06 1.69346e+06 686211 1.5922e+06 484725 576472 1.70699e+06 1.70699e+06 526763 1.65737e+06 882815 756897 1.34575e+06 1.72737e+06 1.91088e+06 1.83848e+06 1.86383e+06 1.72737e+06 1.44604e+06 1.29056e+06 795804 1.48078e+06 941283 1.92565e+06 1.80242e+06 1.48078e+06 734081 1.80881e+06 1.58562e+06 1.22508e+06 734081 1.80881e+06 556582 531737 508293 508293 520307 1.90187e+06 1.91716e+06 1.91716e+06 1.92827e+06 1.94028e+06 2.06538e+06 2.06538e+06 2.03749e+06 2.01042e+06 1.98388e+06 1.98388e+06 1.90635e+06 1.8587e+06 1.81175e+06 1.81175e+06 1.75714e+06 1.54279e+06 1.49147e+06 1.49147e+06 1.42929e+06 1.36709e+06 937037 937037 891081 844305 795562 795562 </DataArray>
</PointData>
<CellData/>
</Piece>
</UnstructuredGrid>
</VTKFile>
