<?xml version="1.0" ?>
<VTKFile byte_order="LittleEndian" type="UnstructuredGrid" version="0.1">
<UnstructuredGrid>
<Piece NumberOfCells="125" NumberOfPoints="216">
<Points>
<DataArray Name="vertices" NumberOfComponents="3" format="ascii" type="Float32">0.000774662 2.30228 10.035 0 0 0 -0.000191027 4.18938 9.37401 0 2 0 1.99923 2.30228 10.035 2 0 0 2.00019 4.18938 9.37401 2 2 0 0.0235352 0.135196 2.10935 0.0148554 0.487729 4.18053 0.0103048 1.00878 6.18633 0.00523353 1.63091 8.13252 0.000790477 2.678 9.90186 0.000427178 3.05493 9.77048 7.12042e-05 3.43276 9.63941 -0.00026754 3.81112 9.50763 -0.0241173 2.12259 1.88744 -0.0154377 2.44325 3.76428 -0.0100539 2.93066 5.63381 -0.00495286 3.52809 7.5007 0 0.4 0 0 0.8 0 0 1.2 0 0 1.6 0 1.97646 0.135196 2.10935 1.98514 0.487729 4.18053 1.9897 1.00878 6.18633 1.99477 1.63091 8.13252 1.99921 2.678 9.90186 1.99957 3.05493 9.77048 1.99993 3.43276 9.63941 2.00027 3.81112 9.50763 2.02412 2.12259 1.88744 2.01544 2.44325 3.76428 2.01005 2.93066 5.63381 2.00495 3.52809 7.5007 2 0.4 0 2 0.8 0 2 1.2 0 2 1.6 0 0.4 0 0 0.8 0 0 1.2 0 0 1.6 0 0 0.400393 2.30146 10.0353 0.800127 2.30124 10.0353 1.19987 2.30124 10.0353 1.59961 2.30146 10.0353 0.4 2 0 0.8 2 0 1.2 2 0 1.6 2 0 0.399956 4.18843 9.37377 0.799988 4.18827 9.37378 1.20001 4.18827 9.37378 1.60004 4.18843 9.37377 0.0135822 0.525031 2.06352 0.00410083 0.91875 2.02051 -0.00523826 1.3162 1.97814 -0.0144488 1.71741 1.93442 0.00888519 0.874485 4.09735 0.00296246 1.2634 4.01508 -0.00301309 1.65461 3.93284 -0.00905989 2.04801 3.84962 0.0060784 1.38974 6.07552 0.00207292 1.77276 5.96607 -0.00188395 2.15741 5.85671 -0.00585323 2.54346 5.74639 0.00311707 2.00874 8.00536 0.00115548 2.38778 7.87981 -0.00080681 2.76763 7.75467 -0.00278432 3.14788 7.62874 1.99688 2.00874 8.00536 1.99884 2.38778 7.87981 2.00081 2.76763 7.75467 2.00278 3.14788 7.62874 1.99392 1.38974 6.07552 1.99793 1.77276 5.96607 2.00188 2.15741 5.85671 2.00585 2.54346 5.74639 1.99111 0.874485 4.09735 1.99704 1.2634 4.01508 2.00301 1.65461 3.93284 2.00906 2.04801 3.84962 1.98642 0.525031 2.06352 1.9959 0.91875 2.02051 2.00524 1.3162 1.97814 2.01445 1.71741 1.93442 0.41371 0.142657 2.10743 0.409005 0.492573 4.18039 0.406075 1.01196 6.18579 0.403133 1.63285 8.1324 0.804486 0.14615 2.10697 0.803016 0.494924 4.17988 0.802012 1.0135 6.18549 0.80104 1.63367 8.13216 1.19551 0.14615 2.10697 1.19698 0.494924 4.17988 1.19799 1.0135 6.18549 1.19896 1.63367 8.13216 1.58629 0.142657 2.10743 1.591 0.492573 4.18039 1.59392 1.01196 6.18579 1.59687 1.63285 8.1324 1.61416 2.13016 1.88792 1.60945 2.44817 3.76201 1.60595 2.93359 5.63245 1.60299 3.52976 7.49964 1.20466 2.13375 1.88753 1.20318 2.45067 3.76146 1.20198 2.93509 5.63181 1.20099 3.53055 7.49932 0.795338 2.13375 1.88753 0.796824 2.45067 3.76146 0.798022 2.93509 5.63181 0.799006 3.53055 7.49932 0.385841 2.13016 1.88792 0.390548 2.44817 3.76201 0.394053 2.93359 5.63245 0.397009 3.52976 7.49964 0.4 0.4 0 0.8 0.4 0 1.2 0.4 0 1.6 0.4 0 0.4 0.8 0 0.8 0.8 0 1.2 0.8 0 1.6 0.8 0 0.4 1.2 0 0.8 1.2 0 1.2 1.2 0 1.6 1.2 0 0.4 1.6 0 0.8 1.6 0 1.2 1.6 0 1.6 1.6 0 0.39982 3.81047 9.50736 0.799948 3.81022 9.50725 1.20005 3.81022 9.50725 1.60018 3.81047 9.50736 0.400023 3.43234 9.63929 0.800005 3.43216 9.63923 1.2 3.43216 9.63923 1.59998 3.43234 9.63929 0.400288 3.05459 9.77056 0.800102 3.05443 9.7706 1.1999 3.05443 9.7706 1.59971 3.05459 9.77056 0.400511 2.67756 9.9022 0.800165 2.67736 9.9023 1.19984 2.67736 9.9023 1.59949 2.67756 9.9022 0.401863 2.01056 8.00519 0.800622 2.01143 8.00503 1.19938 2.01143 8.00503 1.59814 2.01056 8.00519 0.400679 2.38947 7.87939 0.800224 2.39031 7.87916 1.19978 2.39031 7.87916 1.59932 2.38947 7.87939 0.399509 2.76923 7.75397 0.799835 2.77003 7.75363 1.20017 2.77003 7.75363 1.60049 2.76923 7.75397 0.39831 3.14946 7.62775 0.799431 3.15024 7.62734 1.20057 3.15024 7.62734 1.60169 3.14946 7.62775 0.403623 1.39292 6.07492 0.801206 1.39447 6.07464 1.19879 1.39447 6.07464 1.59638 1.39292 6.07492 0.401225 1.77585 5.96526 0.800409 1.7774 5.96487 1.19959 1.7774 5.96487 1.59877 1.77585 5.96526 0.39888 2.16042 5.85565 0.799625 2.16193 5.85509 1.20038 2.16193 5.85509 1.60112 2.16042 5.85565 0.396501 2.54641 5.74509 0.798833 2.54787 5.74443 1.20117 2.54787 5.74443 1.6035 2.54641 5.74509 0.4054 0.879326 4.09709 0.80181 0.881776 4.09674 1.19819 0.881776 4.09674 1.5946 0.879326 4.09709 0.401773 1.26817 4.01425 0.80059 1.27063 4.01379 1.19941 1.27063 4.01379 1.59823 1.26817 4.01425 0.398122 1.65935 3.93139 0.799361 1.66182 3.93075 1.20064 1.66182 3.93075 1.60188 1.65935 3.93139 0.394398 2.05278 3.84752 0.798104 2.05526 3.84676 1.2019 2.05526 3.84676 1.6056 2.05278 3.84752 0.407975 0.532345 2.06175 0.802631 0.53571 2.06113 1.19737 0.53571 2.06113 1.59202 0.532345 2.06175 0.402335 0.925949 2.0194 0.800766 0.929315 2.01893 1.19923 0.929315 2.01893 1.59767 0.925949 2.0194 0.39683 1.32336 1.97775 0.798941 1.32676 1.97749 1.20106 1.32676 1.97749 1.60317 1.32336 1.97775 0.391365 1.7247 1.93477 0.797137 1.72815 1.93466 1.20286 1.72815 1.93466 1.60863 1.7247 1.93477 </DataArray>
</Points>
<Cells>
<DataArray Name="connectivity" format="ascii" type="Int32">0 12 68 11 44 148 152 91 44 148 152 91 45 149 153 95 45 149 153 95 46 150 154 99 46 150 154 99 47 151 155 103 47 151 155 103 4 28 72 27 12 13 69 68 148 144 156 152 148 144 156 152 149 145 157 153 149 145 157 153 150 146 158 154 150 146 158 154 151 147 159 155 151 147 159 155 28 29 73 72 13 14 70 69 144 140 160 156 144 140 160 156 145 141 161 157 145 141 161 157 146 142 162 158 146 142 162 158 147 143 163 159 147 143 163 159 29 30 74 73 14 15 71 70 140 136 164 160 140 136 164 160 141 137 165 161 141 137 165 161 142 138 166 162 142 138 166 162 143 139 167 163 143 139 167 163 30 31 75 74 15 2 19 71 136 52 119 164 136 52 119 164 137 53 115 165 137 53 115 165 138 54 111 166 138 54 111 166 139 55 107 167 139 55 107 167 31 6 35 75 11 68 64 10 91 152 168 90 91 152 168 90 95 153 169 94 95 153 169 94 99 154 170 98 99 154 170 98 103 155 171 102 103 155 171 102 27 72 76 26 68 69 65 64 152 156 172 168 152 156 172 168 153 157 173 169 153 157 173 169 154 158 174 170 154 158 174 170 155 159 175 171 155 159 175 171 72 73 77 76 69 70 66 65 156 160 176 172 156 160 176 172 157 161 177 173 157 161 177 173 158 162 178 174 158 162 178 174 159 163 179 175 159 163 179 175 73 74 78 77 70 71 67 66 160 164 180 176 160 164 180 176 161 165 181 177 161 165 181 177 162 166 182 178 162 166 182 178 163 167 183 179 163 167 183 179 74 75 79 78 71 19 18 67 164 119 118 180 164 119 118 180 165 115 114 181 165 115 114 181 166 111 110 182 166 111 110 182 167 107 106 183 167 107 106 183 75 35 34 79 10 64 60 9 90 168 184 89 90 168 184 89 94 169 185 93 94 169 185 93 98 170 186 97 98 170 186 97 102 171 187 101 102 171 187 101 26 76 80 25 64 65 61 60 168 172 188 184 168 172 188 184 169 173 189 185 169 173 189 185 170 174 190 186 170 174 190 186 171 175 191 187 171 175 191 187 76 77 81 80 65 66 62 61 172 176 192 188 172 176 192 188 173 177 193 189 173 177 193 189 174 178 194 190 174 178 194 190 175 179 195 191 175 179 195 191 77 78 82 81 66 67 63 62 176 180 196 192 176 180 196 192 177 181 197 193 177 181 197 193 178 182 198 194 178 182 198 194 179 183 199 195 179 183 199 195 78 79 83 82 67 18 17 63 180 118 117 196 180 118 117 196 181 114 113 197 181 114 113 197 182 110 109 198 182 110 109 198 183 106 105 199 183 106 105 199 79 34 33 83 9 60 56 8 89 184 200 88 89 184 200 88 93 185 201 92 93 185 201 92 97 186 202 96 97 186 202 96 101 187 203 100 101 187 203 100 25 80 84 24 60 61 57 56 184 188 204 200 184 188 204 200 185 189 205 201 185 189 205 201 186 190 206 202 186 190 206 202 187 191 207 203 187 191 207 203 80 81 85 84 61 62 58 57 188 192 208 204 188 192 208 204 189 193 209 205 189 193 209 205 190 194 210 206 190 194 210 206 191 195 211 207 191 195 211 207 81 82 86 85 62 63 59 58 192 196 212 208 192 196 212 208 193 197 213 209 193 197 213 209 194 198 214 210 194 198 214 210 195 199 215 211 195 199 215 211 82 83 87 86 63 17 16 59 196 117 116 212 196 117 116 212 197 113 112 213 197 113 112 213 198 109 108 214 198 109 108 214 199 105 104 215 199 105 104 215 83 33 32 87 8 56 20 1 88 200 120 40 88 200 120 40 92 201 121 41 92 201 121 41 96 202 122 42 96 202 122 42 100 203 123 43 100 203 123 43 24 84 36 5 56 57 21 20 200 204 124 120 200 204 124 120 201 205 125 121 201 205 125 121 202 206 126 122 202 206 126 122 203 207 127 123 203 207 127 123 84 85 37 36 57 58 22 21 204 208 128 124 204 208 128 124 205 209 129 125 205 209 129 125 206 210 130 126 206 210 130 126 207 211 131 127 207 211 131 127 85 86 38 37 58 59 23 22 208 212 132 128 208 212 132 128 209 213 133 129 209 213 133 129 210 214 134 130 210 214 134 130 211 215 135 131 211 215 135 131 86 87 39 38 59 16 3 23 212 116 48 132 212 116 48 132 213 112 49 133 213 112 49 133 214 108 50 134 214 108 50 134 215 104 51 135 215 104 51 135 87 32 7 39 </DataArray>
<DataArray Name="offsets" format="ascii" type="Int32">8 16 24 32 40 48 56 64 72 80 88 96 104 112 120 128 136 144 152 160 168 176 184 192 200 208 216 224 232 240 248 256 264 272 280 288 296 304 312 320 328 336 344 352 360 368 376 384 392 400 408 416 424 432 440 448 456 464 472 480 488 496 504 512 520 528 536 544 552 560 568 576 584 592 600 608 616 624 632 640 648 656 664 672 680 688 696 704 712 720 728 736 744 752 760 768 776 784 792 800 808 816 824 832 840 848 856 864 872 880 888 896 904 912 920 928 936 944 952 960 968 976 984 992 1000 </DataArray>
<DataArray Name="types" format="ascii" type="UInt8">12 12 12 12 12 12 12 12 12 12 12 12 12 12 12 12 12 12 12 12 12 12 12 12 12 12 12 12 12 12 12 12 12 12 12 12 12 12 12 12 12 12 12 12 12 12 12 12 12 12 12 12 12 12 12 12 12 12 12 12 12 12 12 12 12 12 12 12 12 12 12 12 12 12 12 12 12 12 12 12 12 12 12 12 12 12 12 12 12 12 12 12 12 12 12 12 12 12 12 12 12 12 12 12 12 12 12 12 12 12 12 12 12 12 12 12 12 12 12 12 12 12 12 12 12 </DataArray>
</Cells>
<PointData>
<DataArray Name="Uz 0" NumberOfComponents="1" format="ascii" type="Float32">-888.939 -991.18 -991.39 -3824.7 -722.054 2368.1 2053.54 1302.35 4370.53 4494.41 424.204 583.605 -736.932 2521.23 243.962 269.672 -1030.67 2711.49 209.938 -3586.27 -3797.9 -292.308 -493.911 -919.776 3293.83 -650.819 1502.4 3562.42 4707.51 4708.93 -2426.82 -588.23 1217.46 1369.72 3435.31 344.766 1408.2 -28.7001 830.709 663.725 1681.74 -673.245 391.431 348.166 -775.792 1784.28 121.165 595.503 88.0549 920.436 862.621 -330.2 -641.709 1201.98 310.53 536.491 -2122.18 2682.46 782.374 73.2695 493.705 66.5674 1227.87 -399.953 -977.583 1537.86 464.015 -568.222 -2362.02 2922.29 1168.22 -648.061 311200 -3314.59 303148 184014 412131 406010 274445 17853.3 63808.2 385691 408215 155980 27306.2 1922.83 40741.5 409738 -3034.78 -3034.78 398885 73090.5 214673 196660 346344 455365 459027 445375 346344 209672 73113.9 72996.6 361425 217523 76436.3 458081 361425 184714 69442.3 434887 325857 184714 34083.9 34083.9 23672.9 13866.5 4098.46 4098.46 481660 484725 488803 488803 489298 505260 502815 502815 496452 490338 395209 395209 388245 381098 373799 373799 235151 229550 224022 224022 215055 80959.2 80784.3 80784.3 80984 81297.4 1.04706e+06 344999 1.02584e+06 920496 1.27876e+06 1.26016e+06 1.0499e+06 340118 578983 1.25175e+06 1.26644e+06 815954 352157 337544 392635 1.27622e+06 361991 361991 1.25075e+06 580919 1.01818e+06 940308 1.24227e+06 1.41297e+06 1.42456e+06 1.38626e+06 1.24227e+06 994956 603385 542086 1.30189e+06 1.03056e+06 635556 1.4292e+06 1.30189e+06 906074 536709 1.36643e+06 1.18784e+06 906074 371903 371903 364934 359050 354325 354325 1.43921e+06 1.4466e+06 1.45561e+06 1.45561e+06 1.45978e+06 1.5397e+06 1.52869e+06 1.52869e+06 1.51246e+06 1.49662e+06 1.38848e+06 1.38848e+06 1.36282e+06 1.33738e+06 1.31124e+06 1.31124e+06 1.08667e+06 1.06035e+06 1.03339e+06 1.03339e+06 998646 642935 614737 614737 595193 573971 </DataArray>
<DataArray Name="Uz 1" NumberOfComponents="1" format="ascii" type="Float32">3429.03 3410.17 3512.41 -3267.15 231.659 -2921.68 3060.88 250.658 5505.52 2402.87 -687.277 -372.723 378.466 2619.19 -938.367 1411.15 207.234 2730.8 -1049.98 -3542.24 -2553.93 -3114.79 722.492 389.156 1928.27 4123.28 285.999 2373.76 4594.77 -1776.34 -2106.9 -471.738 1596.72 2784.84 3115.39 -446.337 458.235 -399.713 1037.19 1454.83 902.67 839.15 169.341 660.325 68.1003 1618.79 -610.295 412.988 372.676 -564.723 1573.21 890.473 -25.3723 193.913 366.359 23.7819 -519.714 -1224.97 1785.24 487.003 359.145 -2567.82 3128.09 960.226 -144.583 -259.135 819.408 1128.49 -592.416 -2385.68 2945.96 1208.33 29272.7 311200 -3314.59 303074 410236 57969.4 366032 9506.18 184014 412131 406010 274445 17853.3 39910 39910 409738 -2140.17 400026 400026 73032.8 209672 357890 338642 450848 455365 357890 338642 203799 73090.5 76210.9 459355 360466 217523 76210.9 459355 326921 183807 69442.3 434887 326921 34951.2 22799 22799 13866.5 5110.68 483207 483207 484725 487294 490894 490894 505260 501380 497869 497869 490338 394086 389415 389415 381098 372604 236116 236116 229550 223015 216070 216070 80959.2 80977.6 80849.6 80849.6 81297.4 363117 1.04706e+06 344999 1.14392e+06 1.2728e+06 496517 1.19966e+06 335224 920496 1.27876e+06 1.26016e+06 1.0499e+06 340118 385941 385941 1.27622e+06 368862 1.25216e+06 1.25216e+06 560597 994956 1.28654e+06 1.21706e+06 1.40024e+06 1.41297e+06 1.28654e+06 1.21706e+06 968903 580919 633160 1.43099e+06 1.30003e+06 1.03056e+06 633160 1.43099e+06 1.18937e+06 903696 536709 1.36643e+06 1.18937e+06 379642 357191 357191 359050 362256 1.44118e+06 1.44118e+06 1.4466e+06 1.45366e+06 1.46179e+06 1.46179e+06 1.5397e+06 1.52678e+06 1.51435e+06 1.51435e+06 1.49662e+06 1.38655e+06 1.36481e+06 1.36481e+06 1.33738e+06 1.30939e+06 1.08874e+06 1.08874e+06 1.06035e+06 1.03087e+06 1.00131e+06 1.00131e+06 642935 617951 591944 591944 573971 </DataArray>
<DataArray Name="Uz 2" NumberOfComponents="1" format="ascii" type="Float32">3512.62 -907.798 -2689.71 -2813.6 1256.61 1097.21 2417.75 -840.409 4947.97 1449.16 4602.5 -1380.06 1430.16 1436.86 -878.416 2559.23 1473.58 1470.88 -3699.02 -3700.44 -1365.27 -1777.43 -2285.34 1659.31 619.335 2785.92 4806.39 1300.8 4550.73 -2802.51 -208.966 -361.232 1480.23 3811 3204.77 -1090.09 177.782 550.256 -2196.28 2098.58 105.821 617.06 49.4887 959.002 940.391 887.326 779.834 228.657 635.815 145.87 -1547.41 2107.68 585.645 249.743 1035.83 -475.557 1079.99 -222.101 -350.33 910.603 201.128 -667.595 -1754.14 2314.41 704.856 96.2579 -2349.56 2909.83 1152.69 -607.945 -2501.11 3061.38 303148 29272.7 63808.2 385691 408215 155980 27306.2 1922.83 303074 410236 57969.4 366032 9506.18 40741.5 411049 411049 -2140.17 398885 73113.9 72996.6 203799 352737 459027 445375 450848 352737 214673 196660 73032.8 218421 76436.3 458081 360466 218421 69381.6 436088 325857 183807 69381.6 436088 34951.2 23672.9 12934.6 12934.6 5110.68 481660 486264 486264 487294 489298 506696 506696 501380 496452 491736 491736 394086 388245 382323 382323 372604 235151 230540 230540 223015 215055 80824.2 80824.2 80977.6 80984 81091.3 81091.3 1.02584e+06 363117 578983 1.25175e+06 1.26644e+06 815954 352157 337544 1.14392e+06 1.2728e+06 496517 1.19966e+06 335224 392635 1.27798e+06 1.27798e+06 368862 1.25075e+06 603385 542086 968903 1.26526e+06 1.42456e+06 1.38626e+06 1.40024e+06 1.26526e+06 1.01818e+06 940308 560597 1.03251e+06 635556 1.4292e+06 1.30003e+06 1.03251e+06 533848 1.36795e+06 1.18784e+06 903696 533848 1.36795e+06 379642 364934 351246 351246 362256 1.43921e+06 1.44853e+06 1.44853e+06 1.45366e+06 1.45978e+06 1.54162e+06 1.54162e+06 1.52678e+06 1.51246e+06 1.49849e+06 1.49849e+06 1.38655e+06 1.36282e+06 1.33925e+06 1.33925e+06 1.30939e+06 1.08667e+06 1.06264e+06 1.06264e+06 1.03087e+06 998646 639777 639777 617951 595193 570930 570930 </DataArray>
</PointData>
<CellData/>
</Piece>
</UnstructuredGrid>
</VTKFile>
