<?xml version="1.0" ?>
<VTKFile byte_order="LittleEndian" type="UnstructuredGrid" version="0.1">
<UnstructuredGrid>
<Piece NumberOfCells="125" NumberOfPoints="216">
<Points>
<DataArray Name="vertices" NumberOfComponents="3" format="ascii" type="Float32">0.000617299 1.9395 10.07 0 0 0 -0.000199577 3.85897 9.50934 0 2 0 1.99938 1.9395 10.07 2 0 0 2.0002 3.85897 9.50934 2 2 0 0.019864 0.112739 2.09227 0.0125843 0.407638 4.15614 0.00869766 0.845657 6.16991 0.00441408 1.37089 8.13735 0.000635367 2.32201 9.95698 0.000329427 2.70546 9.84553 2.80133e-05 3.08964 9.73439 -0.000260496 3.47431 9.62266 -0.0202737 2.10381 1.90548 -0.0129968 2.37605 3.80481 -0.00851812 2.79006 5.70244 -0.0042116 3.29759 7.60186 0 0.4 0 0 0.8 0 0 1.2 0 0 1.6 0 1.98014 0.112739 2.09227 1.98742 0.407638 4.15614 1.9913 0.845657 6.16991 1.99559 1.37089 8.13735 1.99936 2.32201 9.95698 1.99967 2.70546 9.84553 1.99997 3.08964 9.73439 2.00026 3.47431 9.62266 2.02027 2.10381 1.90548 2.013 2.37605 3.80481 2.00852 2.79006 5.70244 2.00421 3.29759 7.60186 2 0.4 0 2 0.8 0 2 1.2 0 2 1.6 0 0.4 0 0 0.8 0 0 1.2 0 0 1.6 0 0 0.400309 1.93881 10.0702 0.800099 1.93863 10.0702 1.1999 1.93863 10.0702 1.59969 1.93881 10.0702 0.4 2 0 0.8 2 0 1.2 2 0 1.6 2 0 0.39994 3.85818 9.50913 0.799982 3.85804 9.50914 1.20002 3.85804 9.50914 1.60006 3.85818 9.50913 0.011498 0.50451 2.05363 0.00353102 0.899554 2.01738 -0.00433352 1.29774 1.9817 -0.0121088 1.69911 1.94494 0.0075162 0.797631 4.0858 0.002506 1.18945 4.01629 -0.00254083 1.5832 3.94687 -0.007639 1.97882 3.87668 0.00512542 1.23166 6.07604 0.00174086 1.61935 5.98338 -0.00160498 2.00843 5.89085 -0.00496384 2.39872 5.79758 0.00261818 1.7549 8.0295 0.000956055 2.13987 7.92308 -0.000705448 2.52551 7.81703 -0.00237871 2.91152 7.71034 1.99738 1.7549 8.0295 1.99904 2.13987 7.92308 2.00071 2.52551 7.81703 2.00238 2.91152 7.71034 1.99487 1.23166 6.07604 1.99826 1.61935 5.98338 2.0016 2.00843 5.89085 2.00496 2.39872 5.79758 1.99248 0.797631 4.0858 1.99749 1.18945 4.01629 2.00254 1.5832 3.94687 2.00764 1.97882 3.87668 1.9885 0.50451 2.05363 1.99647 0.899554 2.01738 2.00433 1.29774 1.9817 2.01211 1.69911 1.94494 0.411579 0.119041 2.09074 0.407633 0.411762 4.15617 0.405129 0.848366 6.16958 0.402644 1.37254 8.13732 0.803791 0.121996 2.09041 0.802557 0.413769 4.1558 0.801699 0.849685 6.16939 0.800878 1.37324 8.13716 1.19621 0.121996 2.09041 1.19744 0.413769 4.1558 1.1983 0.849685 6.16939 1.19912 1.37324 8.13716 1.58842 0.119041 2.09074 1.59237 0.411762 4.15617 1.59487 0.848366 6.16958 1.59736 1.37254 8.13732 1.6119 2.11019 1.90599 1.60795 2.38023 3.80306 1.60504 2.79258 5.7014 1.60254 3.29904 7.60103 1.20392 2.11321 1.90572 1.20267 2.38235 3.80267 1.20167 2.79387 5.70093 1.20084 3.29972 7.60079 0.796085 2.11321 1.90572 0.79733 2.38235 3.80267 0.798325 2.79387 5.70093 0.799156 3.29972 7.60079 0.388104 2.11019 1.90599 0.39205 2.38023 3.80306 0.394962 2.79258 5.7014 0.397459 3.29904 7.60103 0.4 0.4 0 0.8 0.4 0 1.2 0.4 0 1.6 0.4 0 0.4 0.8 0 0.8 0.8 0 1.2 0.8 0 1.6 0.8 0 0.4 1.2 0 0.8 1.2 0 1.2 1.2 0 1.6 1.2 0 0.4 1.6 0 0.8 1.6 0 1.2 1.6 0 1.6 1.6 0 0.399826 3.47377 9.62241 0.799949 3.47357 9.62232 1.20005 3.47357 9.62232 1.60017 3.47377 9.62241 0.399999 3.0893 9.73428 0.799997 3.08915 9.73423 1.2 3.08915 9.73423 1.6 3.0893 9.73428 0.400223 2.70517 9.84561 0.80008 2.70503 9.84564 1.19992 2.70503 9.84564 1.59978 2.70517 9.84561 0.400411 2.32163 9.95727 0.800132 2.32146 9.95735 1.19987 2.32146 9.95735 1.59959 2.32163 9.95727 0.401567 1.75645 8.02944 0.800523 1.75719 8.02934 1.19948 1.75719 8.02934 1.59843 1.75645 8.02944 0.400563 2.14132 7.9228 0.800186 2.14204 7.92264 1.19981 2.14204 7.92264 1.59944 2.14132 7.9228 0.399572 2.5269 7.81651 0.799856 2.52759 7.81626 1.20014 2.52759 7.81626 1.60043 2.5269 7.81651 0.398558 2.91289 7.70957 0.799515 2.91357 7.70925 1.20049 2.91357 7.70925 1.60144 2.91289 7.70957 0.403056 1.23437 6.07566 0.801018 1.23569 6.07548 1.19898 1.23569 6.07548 1.59694 1.23437 6.07566 0.401029 1.622 5.98282 0.800344 1.62332 5.98254 1.19966 1.62332 5.98254 1.59897 1.622 5.98282 0.399046 2.01101 5.89008 0.79968 2.01231 5.88967 1.20032 2.01231 5.88967 1.60095 2.01101 5.89008 0.397034 2.40126 5.7966 0.799011 2.40252 5.7961 1.20099 2.40252 5.7961 1.60297 2.40126 5.7966 0.404573 0.801744 4.08573 0.801534 0.803827 4.0855 1.19847 0.803827 4.0855 1.59543 0.801744 4.08573 0.401505 1.1935 4.01574 0.800502 1.19559 4.01542 1.1995 1.19559 4.01542 1.5985 1.1935 4.01574 0.398422 1.58723 3.9458 0.799464 1.58933 3.94533 1.20054 1.58933 3.94533 1.60158 1.58723 3.9458 0.395284 1.98289 3.87507 0.798405 1.98499 3.87451 1.20159 1.98499 3.87451 1.60472 1.98289 3.87507 0.406762 0.510679 2.05223 0.802232 0.513525 2.05176 1.19777 0.513525 2.05176 1.59324 0.510679 2.05223 0.402023 0.905625 2.01654 0.800665 0.908468 2.01619 1.19934 0.908468 2.01619 1.59798 0.905625 2.01654 0.397387 1.30379 1.98147 0.799128 1.30665 1.9813 1.20087 1.30665 1.9813 1.60261 1.30379 1.98147 0.392773 1.70526 1.94533 0.797605 1.70817 1.94528 1.2024 1.70817 1.94528 1.60723 1.70526 1.94533 </DataArray>
</Points>
<Cells>
<DataArray Name="connectivity" format="ascii" type="Int32">0 12 68 11 44 148 152 91 44 148 152 91 45 149 153 95 45 149 153 95 46 150 154 99 46 150 154 99 47 151 155 103 47 151 155 103 4 28 72 27 12 13 69 68 148 144 156 152 148 144 156 152 149 145 157 153 149 145 157 153 150 146 158 154 150 146 158 154 151 147 159 155 151 147 159 155 28 29 73 72 13 14 70 69 144 140 160 156 144 140 160 156 145 141 161 157 145 141 161 157 146 142 162 158 146 142 162 158 147 143 163 159 147 143 163 159 29 30 74 73 14 15 71 70 140 136 164 160 140 136 164 160 141 137 165 161 141 137 165 161 142 138 166 162 142 138 166 162 143 139 167 163 143 139 167 163 30 31 75 74 15 2 19 71 136 52 119 164 136 52 119 164 137 53 115 165 137 53 115 165 138 54 111 166 138 54 111 166 139 55 107 167 139 55 107 167 31 6 35 75 11 68 64 10 91 152 168 90 91 152 168 90 95 153 169 94 95 153 169 94 99 154 170 98 99 154 170 98 103 155 171 102 103 155 171 102 27 72 76 26 68 69 65 64 152 156 172 168 152 156 172 168 153 157 173 169 153 157 173 169 154 158 174 170 154 158 174 170 155 159 175 171 155 159 175 171 72 73 77 76 69 70 66 65 156 160 176 172 156 160 176 172 157 161 177 173 157 161 177 173 158 162 178 174 158 162 178 174 159 163 179 175 159 163 179 175 73 74 78 77 70 71 67 66 160 164 180 176 160 164 180 176 161 165 181 177 161 165 181 177 162 166 182 178 162 166 182 178 163 167 183 179 163 167 183 179 74 75 79 78 71 19 18 67 164 119 118 180 164 119 118 180 165 115 114 181 165 115 114 181 166 111 110 182 166 111 110 182 167 107 106 183 167 107 106 183 75 35 34 79 10 64 60 9 90 168 184 89 90 168 184 89 94 169 185 93 94 169 185 93 98 170 186 97 98 170 186 97 102 171 187 101 102 171 187 101 26 76 80 25 64 65 61 60 168 172 188 184 168 172 188 184 169 173 189 185 169 173 189 185 170 174 190 186 170 174 190 186 171 175 191 187 171 175 191 187 76 77 81 80 65 66 62 61 172 176 192 188 172 176 192 188 173 177 193 189 173 177 193 189 174 178 194 190 174 178 194 190 175 179 195 191 175 179 195 191 77 78 82 81 66 67 63 62 176 180 196 192 176 180 196 192 177 181 197 193 177 181 197 193 178 182 198 194 178 182 198 194 179 183 199 195 179 183 199 195 78 79 83 82 67 18 17 63 180 118 117 196 180 118 117 196 181 114 113 197 181 114 113 197 182 110 109 198 182 110 109 198 183 106 105 199 183 106 105 199 79 34 33 83 9 60 56 8 89 184 200 88 89 184 200 88 93 185 201 92 93 185 201 92 97 186 202 96 97 186 202 96 101 187 203 100 101 187 203 100 25 80 84 24 60 61 57 56 184 188 204 200 184 188 204 200 185 189 205 201 185 189 205 201 186 190 206 202 186 190 206 202 187 191 207 203 187 191 207 203 80 81 85 84 61 62 58 57 188 192 208 204 188 192 208 204 189 193 209 205 189 193 209 205 190 194 210 206 190 194 210 206 191 195 211 207 191 195 211 207 81 82 86 85 62 63 59 58 192 196 212 208 192 196 212 208 193 197 213 209 193 197 213 209 194 198 214 210 194 198 214 210 195 199 215 211 195 199 215 211 82 83 87 86 63 17 16 59 196 117 116 212 196 117 116 212 197 113 112 213 197 113 112 213 198 109 108 214 198 109 108 214 199 105 104 215 199 105 104 215 83 33 32 87 8 56 20 1 88 200 120 40 88 200 120 40 92 201 121 41 92 201 121 41 96 202 122 42 96 202 122 42 100 203 123 43 100 203 123 43 24 84 36 5 56 57 21 20 200 204 124 120 200 204 124 120 201 205 125 121 201 205 125 121 202 206 126 122 202 206 126 122 203 207 127 123 203 207 127 123 84 85 37 36 57 58 22 21 204 208 128 124 204 208 128 124 205 209 129 125 205 209 129 125 206 210 130 126 206 210 130 126 207 211 131 127 207 211 131 127 85 86 38 37 58 59 23 22 208 212 132 128 208 212 132 128 209 213 133 129 209 213 133 129 210 214 134 130 210 214 134 130 211 215 135 131 211 215 135 131 86 87 39 38 59 16 3 23 212 116 48 132 212 116 48 132 213 112 49 133 213 112 49 133 214 108 50 134 214 108 50 134 215 104 51 135 215 104 51 135 87 32 7 39 </DataArray>
<DataArray Name="offsets" format="ascii" type="Int32">8 16 24 32 40 48 56 64 72 80 88 96 104 112 120 128 136 144 152 160 168 176 184 192 200 208 216 224 232 240 248 256 264 272 280 288 296 304 312 320 328 336 344 352 360 368 376 384 392 400 408 416 424 432 440 448 456 464 472 480 488 496 504 512 520 528 536 544 552 560 568 576 584 592 600 608 616 624 632 640 648 656 664 672 680 688 696 704 712 720 728 736 744 752 760 768 776 784 792 800 808 816 824 832 840 848 856 864 872 880 888 896 904 912 920 928 936 944 952 960 968 976 984 992 1000 </DataArray>
<DataArray Name="types" format="ascii" type="UInt8">12 12 12 12 12 12 12 12 12 12 12 12 12 12 12 12 12 12 12 12 12 12 12 12 12 12 12 12 12 12 12 12 12 12 12 12 12 12 12 12 12 12 12 12 12 12 12 12 12 12 12 12 12 12 12 12 12 12 12 12 12 12 12 12 12 12 12 12 12 12 12 12 12 12 12 12 12 12 12 12 12 12 12 12 12 12 12 12 12 12 12 12 12 12 12 12 12 12 12 12 12 12 12 12 12 12 12 12 12 12 12 12 12 12 12 12 12 12 12 12 12 12 12 12 12 </DataArray>
</Cells>
<PointData>
<DataArray Name="Uz 0" NumberOfComponents="1" format="ascii" type="Float32">-661.848 -700.781 -725.862 -3034.45 -544.749 1674.44 1236.77 925.287 3578.85 3321.64 315.439 729.799 -530.207 1773.92 167.262 181.356 -726.886 1909.5 138.674 -3110.27 -3078.25 -594.801 -604.993 -790.635 2483.17 -343.319 1314.56 2905.45 3910.56 3914.28 -1889.73 -496.686 967.851 1001.43 2599.3 472.571 1103.88 -0.728164 536.8 236.999 1193.53 -483.963 272.529 246.862 -544.669 1254.24 82.7185 413.485 36.2156 673.354 615.101 -269.125 -546.671 940.876 246.827 351.89 -1684.2 2078.41 610.208 -5.24885 182.274 211.931 955.867 -372.715 -954.845 1349.05 414.58 -525.657 -2044.82 2439.02 949.022 -582.855 222177 -5657.06 217097 129410 295165 291505 196933 12313.7 43432.6 275395 292857 111162 20077.8 -1083.35 30712.9 293419 -5719.8 -5719.8 286314 51001.9 151634 140427 247800 326370 328576 320002 247800 148607 50345 52261.5 256595 153425 52550.1 327501 256595 132169 49876.1 312770 234301 132169 25480.9 25480.9 16842.3 8673.48 489.418 489.418 346176 348159 350850 350850 350960 361870 360617 360617 356515 352588 281390 281390 277247 272925 268520 268520 166347 162974 159664 159664 153902 55993.8 56630 56630 57513.5 58504.9 898521 291694 883038 774564 1.09963e+06 1.08605e+06 903567 285789 483039 1.07205e+06 1.09067e+06 699590 295288 284931 328802 1.0967e+06 306175 306175 1.07811e+06 488972 859658 803825 1.06434e+06 1.21435e+06 1.22256e+06 1.19469e+06 1.06434e+06 843407 505165 461545 1.10601e+06 866914 529718 1.22462e+06 1.10601e+06 777905 459391 1.17893e+06 1.02328e+06 777905 311548 311548 306463 302292 299091 299091 1.24118e+06 1.2467e+06 1.25361e+06 1.25361e+06 1.25619e+06 1.32164e+06 1.31422e+06 1.31422e+06 1.3021e+06 1.2903e+06 1.18302e+06 1.18302e+06 1.16455e+06 1.14616e+06 1.12717e+06 1.12717e+06 917450 899016 879975 879975 854329 538061 517329 517329 503873 488993 </DataArray>
<DataArray Name="Uz 1" NumberOfComponents="1" format="ascii" type="Float32">2425.57 2435.77 2474.71 -2559.8 131.128 -2564.2 2070.99 181.632 4217.06 1727.37 -491.828 -54.1518 257.329 1854.93 -672.319 1001.26 145.518 1949.13 -766.513 -3079.99 -2195.88 -2483.18 255.405 147.299 1500.21 3192.75 454.165 2063.26 3819.84 -1592.81 -1596.62 -392.22 1206.26 2302.38 2306.19 -169.677 399.297 -394.312 710.298 879.247 638.777 598.476 111.094 462.707 48.4455 1146.12 -436.555 296.085 253.502 -421.732 1131.3 663.33 -49.7305 52.0525 342.153 42.3151 -429.179 -1040.41 1434.62 399.454 197.813 -2080.69 2474.9 766.92 -191.758 -444.871 839.076 919.862 -543.593 -2062.24 2456.44 977.061 21535.1 222177 -5657.06 214771 294047 41244.1 262832 5357.88 129410 295165 291505 196933 12313.7 30122.7 30122.7 293419 -5087.8 287150 287150 51620.1 148607 254600 243008 323534 326370 254600 243008 144979 51001.9 52361.8 328417 255924 153425 52361.8 328417 235077 131541 49876.1 312770 235077 26088.5 16226.6 16226.6 8673.48 1212.63 347302 347302 348159 349756 352119 352119 361870 359577 357541 357541 352588 280588 278081 278081 272925 267660 167038 167038 162974 158961 154603 154603 55993.8 56775.7 57421.3 57421.3 58504.9 304527 898521 291694 971555 1.09532e+06 424361 1.03413e+06 282320 774564 1.09963e+06 1.08605e+06 903567 285789 323138 323138 1.0967e+06 311967 1.07941e+06 1.07941e+06 474512 843407 1.09599e+06 1.04575e+06 1.20509e+06 1.21435e+06 1.09599e+06 1.04575e+06 824730 488972 527633 1.22619e+06 1.10443e+06 866914 527633 1.22619e+06 1.02463e+06 775927 459391 1.17893e+06 1.02463e+06 318093 299924 299924 302292 305773 1.24296e+06 1.24296e+06 1.2467e+06 1.25185e+06 1.25801e+06 1.25801e+06 1.32164e+06 1.31251e+06 1.3038e+06 1.3038e+06 1.2903e+06 1.18134e+06 1.16629e+06 1.16629e+06 1.14616e+06 1.12554e+06 919221 919221 899016 877885 856524 856524 538061 520066 501112 501112 488993 </DataArray>
<DataArray Name="Uz 2" NumberOfComponents="1" format="ascii" type="Float32">2499.79 -651.65 -2396.23 -2139.02 867.178 452.817 1712.82 -591.308 3742.42 1051.49 3746.82 -888.375 1000.98 1015.35 -642.84 1825.46 1037.1 1043.94 -3200.99 -3204.71 -1353.69 -1521.11 -1773.6 1052.89 562.271 2230.68 3787.82 1304.37 3789.56 -2219.52 -258.281 -291.864 1101.79 2929.09 2602.48 -707.704 172.77 310.273 -1892.91 1417.27 70.7924 437.041 40.0205 669.549 661.124 626.851 532.914 176.656 456.068 94.4692 -1199.03 1593.24 443.936 147.378 651.902 -257.697 823.384 -216.003 -416.278 810.483 196.392 -561.661 -1505.11 1899.31 585.963 -20.3742 -2037.7 2431.9 937.798 -554.817 -2146.93 2541.14 217097 21535.1 43432.6 275395 292857 111162 20077.8 -1083.35 214771 294047 41244.1 262832 5357.88 30712.9 294363 294363 -5087.8 286314 50345 52261.5 144979 251661 328576 320002 323534 251661 151634 140427 51620.1 154070 52550.1 327501 255924 154070 49853.6 313646 234301 131541 49853.6 313646 26088.5 16842.3 8010.59 8010.59 1212.63 346176 349281 349281 349756 350960 362910 362910 359577 356515 353601 353601 280588 277247 273810 273810 267660 166347 163674 163674 158961 153902 55897.9 55897.9 56775.7 57513.5 58352.2 58352.2 883038 304527 483039 1.07205e+06 1.09067e+06 699590 295288 284931 971555 1.09532e+06 424361 1.03413e+06 282320 328802 1.09826e+06 1.09826e+06 311967 1.07811e+06 505165 461545 824730 1.08096e+06 1.22256e+06 1.19469e+06 1.20509e+06 1.08096e+06 859658 803825 474512 868586 529718 1.22462e+06 1.10443e+06 868586 456974 1.18031e+06 1.02328e+06 775927 456974 1.18031e+06 318093 306463 295709 295709 305773 1.24118e+06 1.24845e+06 1.24845e+06 1.25185e+06 1.25619e+06 1.32335e+06 1.32335e+06 1.31251e+06 1.3021e+06 1.29197e+06 1.29197e+06 1.18134e+06 1.16455e+06 1.1478e+06 1.1478e+06 1.12554e+06 917450 900951 900951 877885 854329 535377 535377 520066 503873 486392 486392 </DataArray>
</PointData>
<CellData/>
</Piece>
</UnstructuredGrid>
</VTKFile>
