<?xml version="1.0" ?>
<VTKFile byte_order="LittleEndian" type="UnstructuredGrid" version="0.1">
<UnstructuredGrid>
<Piece NumberOfCells="8" NumberOfPoints="27">
<Points>
<DataArray Name="vertices" NumberOfComponents="3" format="ascii" type="Float32">2.88582e-05 1.59536 10.0986 0 0 0 -0.000373763 3.54089 9.63606 0 2 0 1.99997 1.59536 10.0986 2 0 0 2.00037 3.54089 9.63606 2 2 0 0.0132091 0.506767 5.15148 1.24711e-05 2.56688 9.86796 -0.0138285 2.48238 4.81583 0 1 0 1.98679 0.506767 5.15148 1.99999 2.56688 9.86796 2.01383 2.48238 4.81583 2 1 0 1 0 0 1 1.59377 10.0998 1 2 0 1 3.53907 9.63494 -0.0003512 1.4889 4.98355 2.00035 1.4889 4.98355 1 0.513758 5.15014 1 2.48948 4.81509 1 1 0 1 2.5657 9.86793 1 1.49578 4.98255 </DataArray>
</Points>
<Cells>
<DataArray Name="connectivity" format="ascii" type="Int32">0 9 20 8 17 25 26 22 17 25 26 22 4 13 21 12 9 2 10 20 25 19 23 26 25 19 23 26 13 6 14 21 8 20 11 1 22 26 24 16 22 26 24 16 12 21 15 5 20 10 3 11 26 23 18 24 26 23 18 24 21 14 7 15 </DataArray>
<DataArray Name="offsets" format="ascii" type="Int32">8 16 24 32 40 48 56 64 </DataArray>
<DataArray Name="types" format="ascii" type="UInt8">12 12 12 12 12 12 12 12 </DataArray>
</Cells>
<PointData>
<DataArray Name="Uz 0" NumberOfComponents="1" format="ascii" type="Float32">-0.000840702 0 0.00084434 -0.000368769 -0.00027252 0 0 -0.000104727 0 0.0003526 0 0.00202795 0.00152215 0.00143026 0 0 0.00139876 0 0.0101796 0.0101953 0.00993703 0.00978634 0.00982152 0.0100539 0.0103014 0.00987239 0.0100769 </DataArray>
<DataArray Name="Uz 1" NumberOfComponents="1" format="ascii" type="Float32">0 0.000840702 0 0.000273156 0.000368769 0 -3.75857e-18 -9.75782e-20 1.26418e-17 0 0.0003526 0 0.000944862 0.00152215 0 0.00189704 0.00147114 0.00179706 0.00984424 0.0101796 0.0101953 0.0102139 0.00978634 0.0098285 0.00978217 0.00967892 0.00962786 </DataArray>
<DataArray Name="Uz 2" NumberOfComponents="1" format="ascii" type="Float32">-0.00084434 0 0.00027252 0 -0.000273156 -1.61908e-17 0.000104727 8.67362e-19 3.19237e-19 0.00202795 0 0.00143026 0 0.000944862 0.00114119 0.00139876 0.00132763 0.00154585 0.00993703 0.00984424 0.00982152 0.0100539 0.0102139 0.00979581 0.00987239 0.0100765 0.00980366 </DataArray>
</PointData>
<CellData/>
</Piece>
</UnstructuredGrid>
</VTKFile>
