<?xml version="1.0" ?>
<VTKFile byte_order="LittleEndian" type="UnstructuredGrid" version="0.1">
<UnstructuredGrid>
<Piece NumberOfCells="125" NumberOfPoints="216">
<Points>
<DataArray Name="vertices" NumberOfComponents="3" format="ascii" type="Float32">0.00143455 3.60681 9.78099 0 0 0 -5.49624e-05 5.33387 8.77459 0 2 0 1.99857 3.60681 9.78099 2 0 0 2.00005 5.33387 8.77459 2 2 0 0.0368208 0.221947 2.17136 0.0228397 0.791428 4.25523 0.0160185 1.61466 6.20257 0.00812605 2.57937 8.03174 0.00142394 3.9493 9.57858 0.000855165 4.2942 9.37864 0.000309045 4.64055 9.17895 -0.000199195 4.98751 8.97807 -0.0383336 2.19034 1.82008 -0.0243023 2.68138 3.60574 -0.0154293 3.42362 5.35095 -0.00749493 4.32999 7.06642 0 0.4 0 0 0.8 0 0 1.2 0 0 1.6 0 1.96318 0.221947 2.17136 1.97716 0.791428 4.25523 1.98398 1.61466 6.20257 1.99187 2.57937 8.03174 1.99858 3.9493 9.57858 1.99914 4.2942 9.37864 1.99969 4.64055 9.17895 2.0002 4.98751 8.97807 2.03833 2.19034 1.82008 2.0243 2.68138 3.60574 2.01543 3.42362 5.35095 2.00749 4.32999 7.06642 2 0.4 0 2 0.8 0 2 1.2 0 2 1.6 0 0.4 0 0 0.8 0 0 1.2 0 0 1.6 0 0 0.400753 3.60553 9.78146 0.800244 3.60514 9.78142 1.19976 3.60514 9.78142 1.59925 3.60553 9.78146 0.4 2 0 0.8 2 0 1.2 2 0 1.6 2 0 0.400078 5.33228 8.77429 0.800029 5.33202 8.77429 1.19997 5.33202 8.77429 1.59992 5.33228 8.77429 0.0210056 0.603586 2.09924 0.00591566 0.991369 2.03154 -0.00883111 1.38499 1.96459 -0.0232402 1.78452 1.89513 0.0137261 1.16283 4.12633 0.00457074 1.5376 3.99841 -0.00472099 1.91588 3.87013 -0.0141861 2.29737 3.73987 0.00947778 1.97119 6.03256 0.0032727 2.33115 5.86421 -0.00284128 2.69363 5.6956 -0.00895681 3.05801 5.52518 0.00490637 2.92685 7.83796 0.00190648 3.2766 7.64622 -0.00110398 3.6277 7.45488 -0.00414636 3.97918 7.26226 1.99509 2.92685 7.83796 1.99809 3.2766 7.64622 2.0011 3.6277 7.45488 2.00415 3.97918 7.26226 1.99052 1.97119 6.03256 1.99673 2.33115 5.86421 2.00284 2.69363 5.6956 2.00896 3.05801 5.52518 1.98627 1.16283 4.12633 1.99543 1.5376 3.99841 2.00472 1.91588 3.87013 2.01419 2.29737 3.73987 1.97899 0.603586 2.09924 1.99408 0.991369 2.03154 2.00883 1.38499 1.96459 2.02324 1.78452 1.89513 0.421393 0.233563 2.16768 0.413818 0.798675 4.25406 0.409436 1.61936 6.20091 0.404855 2.58225 8.03104 0.806987 0.238962 2.1666 0.804626 0.802151 4.25283 0.803122 1.62161 6.20007 0.801611 2.58343 8.03044 1.19301 0.238962 2.1666 1.19537 0.802151 4.25283 1.19688 1.62161 6.20007 1.19839 2.58343 8.03044 1.57861 0.233563 2.16768 1.58618 0.798675 4.25406 1.59056 1.61936 6.20091 1.59514 2.58225 8.03104 1.62255 2.20221 1.82018 1.61493 2.68873 3.60104 1.60914 3.42769 5.34809 1.60454 4.33223 7.06436 1.20744 2.20783 1.81916 1.20502 2.69258 3.59967 1.20304 3.42984 5.34672 1.20151 4.33333 7.06364 0.792563 2.20783 1.81916 0.794976 2.69258 3.59967 0.796957 3.42984 5.34672 0.798491 4.33333 7.06364 0.37745 2.20221 1.82018 0.385065 2.68873 3.60104 0.390865 3.42769 5.34809 0.39546 4.33223 7.06436 0.4 0.4 0 0.8 0.4 0 1.2 0.4 0 1.6 0.4 0 0.4 0.8 0 0.8 0.8 0 1.2 0.8 0 1.6 0.8 0 0.4 1.2 0 0.8 1.2 0 1.2 1.2 0 1.6 1.2 0 0.4 1.6 0 0.8 1.6 0 1.2 1.6 0 1.6 1.6 0 0.399861 4.9864 8.97772 0.799968 4.98598 8.97757 1.20003 4.98598 8.97757 1.60014 4.9864 8.97772 0.400163 4.63983 9.17876 0.800051 4.6395 9.17868 1.19995 4.6395 9.17868 1.59984 4.63983 9.17876 0.400568 4.29364 9.37874 0.800201 4.29338 9.3788 1.1998 4.29338 9.3788 1.59943 4.29364 9.37874 0.400919 3.94866 9.5791 0.8003 3.94835 9.57925 1.1997 3.94835 9.57925 1.59908 3.94866 9.5791 0.402921 2.92955 7.8372 0.800973 2.93081 7.83671 1.19903 2.93081 7.83671 1.59708 2.92955 7.8372 0.401112 3.27904 7.64512 0.800366 3.28023 7.64453 1.19963 3.28023 7.64453 1.59889 3.27904 7.64512 0.399316 3.62993 7.45338 0.799768 3.63104 7.45264 1.20023 3.63104 7.45264 1.60068 3.62993 7.45338 0.397469 3.98129 7.26031 0.799146 3.98235 7.25947 1.20085 3.98235 7.25947 1.60253 3.98129 7.26031 0.405645 1.97589 6.03082 0.801879 1.97816 6.02999 1.19812 1.97816 6.02999 1.59436 1.97589 6.03082 0.401932 2.33566 5.86217 0.800645 2.33791 5.86115 1.19935 2.33791 5.86115 1.59807 2.33566 5.86217 0.398309 2.69793 5.6932 0.799433 2.70009 5.69194 1.20057 2.70009 5.69194 1.60169 2.69793 5.6932 0.394645 3.06213 5.52242 0.798213 3.0642 5.521 1.20179 3.0642 5.521 1.60536 3.06213 5.52242 0.408306 1.17013 4.12494 0.802778 1.17381 4.12393 1.19722 1.17381 4.12393 1.59169 1.17013 4.12494 0.402705 1.54476 3.99612 0.800894 1.54847 3.99492 1.19911 1.54847 3.99492 1.5973 1.54476 3.99612 0.397023 1.92295 3.86684 0.79898 1.92667 3.86535 1.20102 1.92667 3.86535 1.60298 1.92295 3.86684 0.39118 2.30446 3.7355 0.797006 2.3082 3.73382 1.20299 2.3082 3.73382 1.60882 2.30446 3.7355 0.412264 0.615036 2.09578 0.804039 0.620248 2.09448 1.19596 0.620248 2.09448 1.58774 0.615036 2.09578 0.403281 1.00265 2.02909 0.801067 1.00789 2.02801 1.19893 1.00789 2.02801 1.59672 1.00265 2.02909 0.39459 1.39619 1.96329 0.798187 1.4015 1.96255 1.20181 1.4015 1.96255 1.60541 1.39619 1.96329 0.38605 1.79592 1.89505 0.79537 1.80133 1.89452 1.20463 1.80133 1.89452 1.61395 1.79592 1.89505 </DataArray>
</Points>
<Cells>
<DataArray Name="connectivity" format="ascii" type="Int32">0 12 68 11 44 148 152 91 44 148 152 91 45 149 153 95 45 149 153 95 46 150 154 99 46 150 154 99 47 151 155 103 47 151 155 103 4 28 72 27 12 13 69 68 148 144 156 152 148 144 156 152 149 145 157 153 149 145 157 153 150 146 158 154 150 146 158 154 151 147 159 155 151 147 159 155 28 29 73 72 13 14 70 69 144 140 160 156 144 140 160 156 145 141 161 157 145 141 161 157 146 142 162 158 146 142 162 158 147 143 163 159 147 143 163 159 29 30 74 73 14 15 71 70 140 136 164 160 140 136 164 160 141 137 165 161 141 137 165 161 142 138 166 162 142 138 166 162 143 139 167 163 143 139 167 163 30 31 75 74 15 2 19 71 136 52 119 164 136 52 119 164 137 53 115 165 137 53 115 165 138 54 111 166 138 54 111 166 139 55 107 167 139 55 107 167 31 6 35 75 11 68 64 10 91 152 168 90 91 152 168 90 95 153 169 94 95 153 169 94 99 154 170 98 99 154 170 98 103 155 171 102 103 155 171 102 27 72 76 26 68 69 65 64 152 156 172 168 152 156 172 168 153 157 173 169 153 157 173 169 154 158 174 170 154 158 174 170 155 159 175 171 155 159 175 171 72 73 77 76 69 70 66 65 156 160 176 172 156 160 176 172 157 161 177 173 157 161 177 173 158 162 178 174 158 162 178 174 159 163 179 175 159 163 179 175 73 74 78 77 70 71 67 66 160 164 180 176 160 164 180 176 161 165 181 177 161 165 181 177 162 166 182 178 162 166 182 178 163 167 183 179 163 167 183 179 74 75 79 78 71 19 18 67 164 119 118 180 164 119 118 180 165 115 114 181 165 115 114 181 166 111 110 182 166 111 110 182 167 107 106 183 167 107 106 183 75 35 34 79 10 64 60 9 90 168 184 89 90 168 184 89 94 169 185 93 94 169 185 93 98 170 186 97 98 170 186 97 102 171 187 101 102 171 187 101 26 76 80 25 64 65 61 60 168 172 188 184 168 172 188 184 169 173 189 185 169 173 189 185 170 174 190 186 170 174 190 186 171 175 191 187 171 175 191 187 76 77 81 80 65 66 62 61 172 176 192 188 172 176 192 188 173 177 193 189 173 177 193 189 174 178 194 190 174 178 194 190 175 179 195 191 175 179 195 191 77 78 82 81 66 67 63 62 176 180 196 192 176 180 196 192 177 181 197 193 177 181 197 193 178 182 198 194 178 182 198 194 179 183 199 195 179 183 199 195 78 79 83 82 67 18 17 63 180 118 117 196 180 118 117 196 181 114 113 197 181 114 113 197 182 110 109 198 182 110 109 198 183 106 105 199 183 106 105 199 79 34 33 83 9 60 56 8 89 184 200 88 89 184 200 88 93 185 201 92 93 185 201 92 97 186 202 96 97 186 202 96 101 187 203 100 101 187 203 100 25 80 84 24 60 61 57 56 184 188 204 200 184 188 204 200 185 189 205 201 185 189 205 201 186 190 206 202 186 190 206 202 187 191 207 203 187 191 207 203 80 81 85 84 61 62 58 57 188 192 208 204 188 192 208 204 189 193 209 205 189 193 209 205 190 194 210 206 190 194 210 206 191 195 211 207 191 195 211 207 81 82 86 85 62 63 59 58 192 196 212 208 192 196 212 208 193 197 213 209 193 197 213 209 194 198 214 210 194 198 214 210 195 199 215 211 195 199 215 211 82 83 87 86 63 17 16 59 196 117 116 212 196 117 116 212 197 113 112 213 197 113 112 213 198 109 108 214 198 109 108 214 199 105 104 215 199 105 104 215 83 33 32 87 8 56 20 1 88 200 120 40 88 200 120 40 92 201 121 41 92 201 121 41 96 202 122 42 96 202 122 42 100 203 123 43 100 203 123 43 24 84 36 5 56 57 21 20 200 204 124 120 200 204 124 120 201 205 125 121 201 205 125 121 202 206 126 122 202 206 126 122 203 207 127 123 203 207 127 123 84 85 37 36 57 58 22 21 204 208 128 124 204 208 128 124 205 209 129 125 205 209 129 125 206 210 130 126 206 210 130 126 207 211 131 127 207 211 131 127 85 86 38 37 58 59 23 22 208 212 132 128 208 212 132 128 209 213 133 129 209 213 133 129 210 214 134 130 210 214 134 130 211 215 135 131 211 215 135 131 86 87 39 38 59 16 3 23 212 116 48 132 212 116 48 132 213 112 49 133 213 112 49 133 214 108 50 134 214 108 50 134 215 104 51 135 215 104 51 135 87 32 7 39 </DataArray>
<DataArray Name="offsets" format="ascii" type="Int32">8 16 24 32 40 48 56 64 72 80 88 96 104 112 120 128 136 144 152 160 168 176 184 192 200 208 216 224 232 240 248 256 264 272 280 288 296 304 312 320 328 336 344 352 360 368 376 384 392 400 408 416 424 432 440 448 456 464 472 480 488 496 504 512 520 528 536 544 552 560 568 576 584 592 600 608 616 624 632 640 648 656 664 672 680 688 696 704 712 720 728 736 744 752 760 768 776 784 792 800 808 816 824 832 840 848 856 864 872 880 888 896 904 912 920 928 936 944 952 960 968 976 984 992 1000 </DataArray>
<DataArray Name="types" format="ascii" type="UInt8">12 12 12 12 12 12 12 12 12 12 12 12 12 12 12 12 12 12 12 12 12 12 12 12 12 12 12 12 12 12 12 12 12 12 12 12 12 12 12 12 12 12 12 12 12 12 12 12 12 12 12 12 12 12 12 12 12 12 12 12 12 12 12 12 12 12 12 12 12 12 12 12 12 12 12 12 12 12 12 12 12 12 12 12 12 12 12 12 12 12 12 12 12 12 12 12 12 12 12 12 12 12 12 12 12 12 12 12 12 12 12 12 12 12 12 12 12 12 12 12 12 12 12 12 12 </DataArray>
</Cells>
<PointData>
<DataArray Name="Uz 0" NumberOfComponents="1" format="ascii" type="Float32">-1702.19 -2509.93 -2058.63 -7228.51 -1363.64 5851.92 6622.56 3236.56 7656.37 10036.1 1028.65 -762.489 -1736.03 6505.49 691.492 847.29 -2633.07 6970.06 683.844 -4956.34 -6691.25 2095.16 595.236 -1204.85 7009.43 -2310.7 2006.96 6154.91 7793.51 7748.62 -4714.62 -877.692 2345.06 3163.79 7316.81 -748.329 2807.09 -137.717 2447.06 3350.52 4195.31 -1593.12 1049.42 872.988 -2016.08 4618.27 374.595 1568.35 478.832 2123.36 2107.55 -520.301 -880.886 2326.55 601.296 1527.4 -3921.53 5367.19 1555.73 603.309 2396.76 -951.095 2460.59 -333.281 -511.083 1956.75 548.838 -553.188 -3292.21 4737.88 2082.04 -741.831 735752 14822.1 708569 466449 966759 944369 641959 47720.5 175586 916756 952063 372956 64211.9 22056.5 90317.9 962480 17332.9 17332.9 928063 188991 536559 471694 821886 1.06939e+06 1.08311e+06 1.03632e+06 821886 517406 195497 176117 882421 548182 206511 1.08613e+06 882421 437603 164809 1.00817e+06 758788 437603 77159.9 77159.9 59590.3 43244.4 27304.3 27304.3 1.11823e+06 1.12793e+06 1.14013e+06 1.14013e+06 1.14432e+06 1.19108e+06 1.1793e+06 1.1793e+06 1.15892e+06 1.13919e+06 955348 955348 928946 902615 875814 875814 585834 564229 542872 542872 512974 214676 207071 207071 200489 193993 1.49853e+06 538859 1.45301e+06 1.43889e+06 1.8103e+06 1.77035e+06 1.49926e+06 543622 943024 1.80303e+06 1.78353e+06 1.19303e+06 567038 530492 634840 1.81165e+06 564403 564403 1.75701e+06 916118 1.57129e+06 1.38794e+06 1.79882e+06 2.00642e+06 2.0332e+06 1.94961e+06 1.79882e+06 1.51394e+06 969902 819785 1.94274e+06 1.61078e+06 1.03791e+06 2.05173e+06 1.94274e+06 1.31641e+06 795655 1.91505e+06 1.68764e+06 1.31641e+06 600682 600682 584245 569544 556713 556713 2.01358e+06 2.02861e+06 2.04579e+06 2.04579e+06 2.05772e+06 2.19421e+06 2.16633e+06 2.16633e+06 2.13295e+06 2.10025e+06 2.04905e+06 2.04905e+06 1.99056e+06 1.93321e+06 1.87503e+06 1.87503e+06 1.67602e+06 1.61109e+06 1.5458e+06 1.5458e+06 1.46885e+06 1.03447e+06 969835 969835 918860 865472 </DataArray>
<DataArray Name="Uz 1" NumberOfComponents="1" format="ascii" type="Float32">8663.02 8207.68 9015.42 -6226.02 914.686 -3836.58 8167.71 574.658 11565.5 5700.63 -1514.93 -2285.56 1100.43 6586.58 -2249.59 3489.7 539.995 6610.25 -2273.26 -4829.46 -3552.71 -5675.68 3581.84 1887.26 3807.05 8277.87 -979.64 3177.71 7558.54 -2124.8 -4316.14 -704.071 3479.89 4726.99 6918.34 -2070.08 634.083 -204.894 2739.91 4672.27 2277.89 2054.77 547.428 1729.21 169.332 3993.15 -1390.95 1033.85 1047.34 -1109.44 3711.63 1965.97 194 1093.99 351.676 -81.7314 -823.361 -1779.26 3224.93 842.355 1300.93 -4519.38 5965.05 1778.95 305.951 1261.91 183.752 1998.85 -601.469 -3339.77 4785.43 2187.5 68697.6 735752 14822.1 742693 959621 140362 851335 33831 466449 966759 944369 641959 47720.5 88254.4 88254.4 962480 19607.6 930477 930477 182547 517406 866574 795233 1.05389e+06 1.06939e+06 866574 795233 496008 188991 206224 1.08905e+06 880013 548182 206224 1.08905e+06 761218 435192 164809 1.00817e+06 761218 79375.3 57374.1 57374.1 43244.4 29811.9 1.12158e+06 1.12158e+06 1.12793e+06 1.13681e+06 1.14783e+06 1.14783e+06 1.19108e+06 1.1761e+06 1.16207e+06 1.16207e+06 1.13919e+06 952687 931739 931739 902615 873018 588209 588209 564229 540214 515712 515712 214676 207459 200157 200157 193993 584295 1.49853e+06 538859 1.71102e+06 1.79719e+06 741002 1.68965e+06 531401 1.43889e+06 1.8103e+06 1.77035e+06 1.49926e+06 543622 624492 624492 1.81165e+06 575173 1.75836e+06 1.75836e+06 866345 1.51394e+06 1.90111e+06 1.74439e+06 1.97859e+06 2.00642e+06 1.90111e+06 1.74439e+06 1.45256e+06 916118 1.03467e+06 2.05384e+06 1.94008e+06 1.61078e+06 1.03467e+06 2.05384e+06 1.68952e+06 1.31253e+06 795655 1.91505e+06 1.68952e+06 612668 572188 572188 569544 569163 2.0156e+06 2.0156e+06 2.02861e+06 2.04377e+06 2.05983e+06 2.05983e+06 2.19421e+06 2.16421e+06 2.13502e+06 2.13502e+06 2.10025e+06 2.04651e+06 1.99317e+06 1.99317e+06 1.93321e+06 1.87271e+06 1.67914e+06 1.67914e+06 1.61109e+06 1.54166e+06 1.47332e+06 1.47332e+06 1.03447e+06 974639 913980 913980 865472 </DataArray>
<DataArray Name="Uz 2" NumberOfComponents="1" format="ascii" type="Float32">8564.12 -2157.53 -3319.38 -5699.09 3308.35 5099.48 6073.02 -2168.5 10563 3422.31 8173.57 -3830.71 3762.34 3645.5 -1817.01 6154.01 3797 3653.15 -5191.32 -5146.42 -575.518 -2499.57 -4407.23 4912.89 714.938 5101.76 9293.45 507.035 7431.66 -5320.18 257.137 -561.59 3306.27 7922.38 5733.17 -3008.84 155.138 1968.11 -3130.98 5611.03 324.304 1552.77 57.6318 2544.56 2432.86 2227.6 2095.93 506.265 1554.85 494.646 -3000.95 4446.61 1251.66 844.369 3103.29 -1657.62 2269.03 -110.066 332.059 1113.61 144.731 -1014.93 -2455.11 3900.77 1139.71 896.827 -3268.55 4714.21 2047.13 -636.375 -3614.83 5060.49 708569 68697.6 175586 916756 952063 372956 64211.9 22056.5 742693 959621 140362 851335 33831 90317.9 965476 965476 19607.6 928063 195497 176117 496008 845497 1.08311e+06 1.03632e+06 1.05389e+06 845497 536559 471694 182547 550359 206511 1.08613e+06 880013 550359 164523 1.01078e+06 758788 435192 164523 1.01078e+06 79375.3 59590.3 40920.7 40920.7 29811.9 1.11823e+06 1.13127e+06 1.13127e+06 1.13681e+06 1.14432e+06 1.1943e+06 1.1943e+06 1.1761e+06 1.15892e+06 1.14231e+06 1.14231e+06 952687 928946 905444 905444 873018 585834 566754 566754 540214 512974 214379 214379 207459 200489 193557 193557 1.45301e+06 584295 943024 1.80303e+06 1.78353e+06 1.19303e+06 567038 530492 1.71102e+06 1.79719e+06 741002 1.68965e+06 531401 634840 1.81372e+06 1.81372e+06 575173 1.75701e+06 969902 819785 1.45256e+06 1.85073e+06 2.0332e+06 1.94961e+06 1.97859e+06 1.85073e+06 1.57129e+06 1.38794e+06 866345 1.61367e+06 1.03791e+06 2.05173e+06 1.94008e+06 1.61367e+06 791278 1.91662e+06 1.68764e+06 1.31253e+06 791278 1.91662e+06 612668 584245 557341 557341 569163 2.01358e+06 2.03061e+06 2.03061e+06 2.04377e+06 2.05772e+06 2.19638e+06 2.19638e+06 2.16421e+06 2.13295e+06 2.1023e+06 2.1023e+06 2.04651e+06 1.99056e+06 1.93552e+06 1.93552e+06 1.87271e+06 1.67602e+06 1.61472e+06 1.61472e+06 1.54166e+06 1.46885e+06 1.02972e+06 1.02972e+06 974639 918860 861027 861027 </DataArray>
</PointData>
<CellData/>
</Piece>
</UnstructuredGrid>
</VTKFile>
