<?xml version="1.0" ?>
<VTKFile byte_order="LittleEndian" type="UnstructuredGrid" version="0.1">
<UnstructuredGrid>
<Piece NumberOfCells="125" NumberOfPoints="216">
<Points>
<DataArray Name="vertices" NumberOfComponents="3" format="ascii" type="Float32">0.000203887 0.789487 10.0808 0 0 0 -0.000132906 2.77588 9.84841 0 2 0 1.9998 0.789487 10.0808 2 0 0 2.00013 2.77588 9.84841 2 2 0 0.00816976 0.0447613 2.03794 0.00522084 0.162619 4.06886 0.00356172 0.339868 6.08574 0.00179926 0.554768 8.08895 0.000216986 1.18627 10.0339 9.27454e-05 1.58331 9.98769 -3.17656e-05 1.98064 9.94163 -0.000153094 2.37821 9.89536 -0.00823719 2.04327 1.9617 -0.00528966 2.15733 3.92465 -0.00353124 2.33052 5.89291 -0.00176435 2.5424 7.86728 0 0.4 0 0 0.8 0 0 1.2 0 0 1.6 0 1.99183 0.0447613 2.03794 1.99478 0.162619 4.06886 1.99644 0.339868 6.08574 1.9982 0.554768 8.08895 1.99978 1.18627 10.0339 1.99991 1.58331 9.98769 2.00003 1.98064 9.94163 2.00015 2.37821 9.89536 2.00824 2.04327 1.9617 2.00529 2.15733 3.92465 2.00353 2.33052 5.89291 2.00176 2.5424 7.86728 2 0.4 0 2 0.8 0 2 1.2 0 2 1.6 0 0.4 0 0 0.8 0 0 1.2 0 0 1.6 0 0 0.400097 0.789198 10.0809 0.800031 0.789131 10.0809 1.19997 0.789131 10.0809 1.5999 0.789198 10.0809 0.4 2 0 0.8 2 0 1.2 2 0 1.6 2 0 0.399945 2.77557 9.84831 0.799983 2.77551 9.84832 1.20002 2.77551 9.84832 1.60005 2.77557 9.84831 0.00477296 0.441824 2.02208 0.00154035 0.84023 2.00721 -0.00167297 1.23993 1.99264 -0.00487369 1.64092 1.97769 0.00310392 0.560036 4.03981 0.00103437 0.958191 4.01119 -0.00103985 1.35714 3.98269 -0.00312409 1.75689 3.95396 0.00209204 0.736838 6.04686 0.000700812 1.13444 6.00857 -0.000677549 1.5326 5.97041 -0.00206447 1.9313 5.93201 0.00105263 0.951802 8.04421 0.000364617 1.34914 8.00013 -0.0003217 1.74671 7.95625 -0.00101152 2.14448 7.91212 1.99895 0.951802 8.04421 1.99964 1.34914 8.00013 2.00032 1.74671 7.95625 2.00101 2.14448 7.91212 1.99791 0.736838 6.04686 1.9993 1.13444 6.00857 2.00068 1.5326 5.97041 2.00206 1.9313 5.93201 1.9969 0.560036 4.03981 1.99897 0.958191 4.01119 2.00104 1.35714 3.98269 2.00312 1.75689 3.95396 1.99523 0.441824 2.02208 1.99846 0.84023 2.00721 2.00167 1.23993 1.99264 2.00487 1.64092 1.97769 0.404772 0.0473557 2.03744 0.403173 0.164344 4.06907 0.402102 0.340992 6.08577 0.40108 0.555444 8.08904 0.801565 0.0485777 2.03737 0.801064 0.165193 4.06901 0.800697 0.341546 6.08577 0.800359 0.555743 8.08902 1.19844 0.0485777 2.03737 1.19894 0.165193 4.06901 1.1993 0.341546 6.08577 1.19964 0.555743 8.08902 1.59523 0.0473557 2.03744 1.59683 0.164344 4.06907 1.5979 0.340992 6.08577 1.59892 0.555444 8.08904 1.60482 2.04588 1.96203 1.60323 2.15907 3.92415 1.60209 2.33161 5.89265 1.60106 2.54304 7.86704 1.20159 2.04712 1.96199 1.20108 2.15993 3.92408 1.20069 2.33216 5.89254 1.20035 2.54334 7.86699 0.798415 2.04712 1.96199 0.798917 2.15993 3.92408 0.799307 2.33216 5.89254 0.799647 2.54334 7.86699 0.395175 2.04588 1.96203 0.396774 2.15907 3.92415 0.397913 2.33161 5.89265 0.398938 2.54304 7.86704 0.4 0.4 0 0.8 0.4 0 1.2 0.4 0 1.6 0.4 0 0.4 0.8 0 0.8 0.8 0 1.2 0.8 0 1.6 0.8 0 0.4 1.2 0 0.8 1.2 0 1.2 1.2 0 1.6 1.2 0 0.4 1.6 0 0.8 1.6 0 1.2 1.6 0 1.6 1.6 0 0.399899 2.37801 9.89525 0.799969 2.37793 9.89521 1.20003 2.37793 9.89521 1.6001 2.37801 9.89525 0.399973 1.98051 9.94159 0.799989 1.98046 9.94157 1.20001 1.98046 9.94157 1.60003 1.98051 9.94159 0.400065 1.58319 9.98773 0.800024 1.58314 9.98775 1.19998 1.58314 9.98775 1.59993 1.58319 9.98773 0.400141 1.18609 10.034 0.800045 1.18602 10.0341 1.19996 1.18602 10.0341 1.59986 1.18609 10.034 0.400632 0.952442 8.04429 0.800212 0.95275 8.0443 1.19979 0.95275 8.0443 1.59937 0.952442 8.04429 0.400216 1.34974 8.00012 0.800072 1.35005 8.0001 1.19993 1.35005 8.0001 1.59978 1.34974 8.00012 0.399807 1.74731 7.95613 0.799936 1.74761 7.95607 1.20006 1.74761 7.95607 1.60019 1.74731 7.95613 0.399389 2.14509 7.9119 0.799795 2.14539 7.91182 1.2002 2.14539 7.91182 1.60061 2.14509 7.9119 0.401248 0.737964 6.04687 0.800416 0.738516 6.04688 1.19958 0.738516 6.04688 1.59875 0.737964 6.04687 0.400415 1.13555 6.0085 0.800139 1.13611 6.00847 1.19986 1.13611 6.00847 1.59959 1.13555 6.0085 0.399598 1.5337 5.97025 0.799865 1.53426 5.97016 1.20013 1.53426 5.97016 1.6004 1.5337 5.97025 0.398767 1.93239 5.93177 0.799589 1.93294 5.93164 1.20041 1.93294 5.93164 1.60123 1.93239 5.93177 0.401896 0.561745 4.03998 0.800637 0.562614 4.03998 1.19936 0.562614 4.03998 1.5981 0.561745 4.03998 0.400627 0.959878 4.01116 0.80021 0.96075 4.01112 1.19979 0.96075 4.01112 1.59937 0.959878 4.01116 0.399361 1.35883 3.98245 0.799784 1.3597 3.98235 1.20022 1.3597 3.98235 1.60064 1.35883 3.98245 0.39808 1.75859 3.95351 0.799352 1.75946 3.95337 1.20065 1.75946 3.95337 1.60192 1.75859 3.95351 0.40282 0.444352 2.02163 0.800932 0.445527 2.0215 1.19907 0.445527 2.0215 1.59718 0.444352 2.02163 0.400898 0.842716 2.007 0.800297 0.843885 2.00692 1.1997 0.843885 2.00692 1.5991 0.842716 2.007 0.399004 1.24241 1.99267 0.799669 1.24358 1.99267 1.20033 1.24358 1.99267 1.601 1.24241 1.99267 0.397103 1.64345 1.97797 0.799041 1.64463 1.97802 1.20096 1.64463 1.97802 1.6029 1.64345 1.97797 </DataArray>
</Points>
<Cells>
<DataArray Name="connectivity" format="ascii" type="Int32">0 12 68 11 44 148 152 91 44 148 152 91 45 149 153 95 45 149 153 95 46 150 154 99 46 150 154 99 47 151 155 103 47 151 155 103 4 28 72 27 12 13 69 68 148 144 156 152 148 144 156 152 149 145 157 153 149 145 157 153 150 146 158 154 150 146 158 154 151 147 159 155 151 147 159 155 28 29 73 72 13 14 70 69 144 140 160 156 144 140 160 156 145 141 161 157 145 141 161 157 146 142 162 158 146 142 162 158 147 143 163 159 147 143 163 159 29 30 74 73 14 15 71 70 140 136 164 160 140 136 164 160 141 137 165 161 141 137 165 161 142 138 166 162 142 138 166 162 143 139 167 163 143 139 167 163 30 31 75 74 15 2 19 71 136 52 119 164 136 52 119 164 137 53 115 165 137 53 115 165 138 54 111 166 138 54 111 166 139 55 107 167 139 55 107 167 31 6 35 75 11 68 64 10 91 152 168 90 91 152 168 90 95 153 169 94 95 153 169 94 99 154 170 98 99 154 170 98 103 155 171 102 103 155 171 102 27 72 76 26 68 69 65 64 152 156 172 168 152 156 172 168 153 157 173 169 153 157 173 169 154 158 174 170 154 158 174 170 155 159 175 171 155 159 175 171 72 73 77 76 69 70 66 65 156 160 176 172 156 160 176 172 157 161 177 173 157 161 177 173 158 162 178 174 158 162 178 174 159 163 179 175 159 163 179 175 73 74 78 77 70 71 67 66 160 164 180 176 160 164 180 176 161 165 181 177 161 165 181 177 162 166 182 178 162 166 182 178 163 167 183 179 163 167 183 179 74 75 79 78 71 19 18 67 164 119 118 180 164 119 118 180 165 115 114 181 165 115 114 181 166 111 110 182 166 111 110 182 167 107 106 183 167 107 106 183 75 35 34 79 10 64 60 9 90 168 184 89 90 168 184 89 94 169 185 93 94 169 185 93 98 170 186 97 98 170 186 97 102 171 187 101 102 171 187 101 26 76 80 25 64 65 61 60 168 172 188 184 168 172 188 184 169 173 189 185 169 173 189 185 170 174 190 186 170 174 190 186 171 175 191 187 171 175 191 187 76 77 81 80 65 66 62 61 172 176 192 188 172 176 192 188 173 177 193 189 173 177 193 189 174 178 194 190 174 178 194 190 175 179 195 191 175 179 195 191 77 78 82 81 66 67 63 62 176 180 196 192 176 180 196 192 177 181 197 193 177 181 197 193 178 182 198 194 178 182 198 194 179 183 199 195 179 183 199 195 78 79 83 82 67 18 17 63 180 118 117 196 180 118 117 196 181 114 113 197 181 114 113 197 182 110 109 198 182 110 109 198 183 106 105 199 183 106 105 199 79 34 33 83 9 60 56 8 89 184 200 88 89 184 200 88 93 185 201 92 93 185 201 92 97 186 202 96 97 186 202 96 101 187 203 100 101 187 203 100 25 80 84 24 60 61 57 56 184 188 204 200 184 188 204 200 185 189 205 201 185 189 205 201 186 190 206 202 186 190 206 202 187 191 207 203 187 191 207 203 80 81 85 84 61 62 58 57 188 192 208 204 188 192 208 204 189 193 209 205 189 193 209 205 190 194 210 206 190 194 210 206 191 195 211 207 191 195 211 207 81 82 86 85 62 63 59 58 192 196 212 208 192 196 212 208 193 197 213 209 193 197 213 209 194 198 214 210 194 198 214 210 195 199 215 211 195 199 215 211 82 83 87 86 63 17 16 59 196 117 116 212 196 117 116 212 197 113 112 213 197 113 112 213 198 109 108 214 198 109 108 214 199 105 104 215 199 105 104 215 83 33 32 87 8 56 20 1 88 200 120 40 88 200 120 40 92 201 121 41 92 201 121 41 96 202 122 42 96 202 122 42 100 203 123 43 100 203 123 43 24 84 36 5 56 57 21 20 200 204 124 120 200 204 124 120 201 205 125 121 201 205 125 121 202 206 126 122 202 206 126 122 203 207 127 123 203 207 127 123 84 85 37 36 57 58 22 21 204 208 128 124 204 208 128 124 205 209 129 125 205 209 129 125 206 210 130 126 206 210 130 126 207 211 131 127 207 211 131 127 85 86 38 37 58 59 23 22 208 212 132 128 208 212 132 128 209 213 133 129 209 213 133 129 210 214 134 130 210 214 134 130 211 215 135 131 211 215 135 131 86 87 39 38 59 16 3 23 212 116 48 132 212 116 48 132 213 112 49 133 213 112 49 133 214 108 50 134 214 108 50 134 215 104 51 135 215 104 51 135 87 32 7 39 </DataArray>
<DataArray Name="offsets" format="ascii" type="Int32">8 16 24 32 40 48 56 64 72 80 88 96 104 112 120 128 136 144 152 160 168 176 184 192 200 208 216 224 232 240 248 256 264 272 280 288 296 304 312 320 328 336 344 352 360 368 376 384 392 400 408 416 424 432 440 448 456 464 472 480 488 496 504 512 520 528 536 544 552 560 568 576 584 592 600 608 616 624 632 640 648 656 664 672 680 688 696 704 712 720 728 736 744 752 760 768 776 784 792 800 808 816 824 832 840 848 856 864 872 880 888 896 904 912 920 928 936 944 952 960 968 976 984 992 1000 </DataArray>
<DataArray Name="types" format="ascii" type="UInt8">12 12 12 12 12 12 12 12 12 12 12 12 12 12 12 12 12 12 12 12 12 12 12 12 12 12 12 12 12 12 12 12 12 12 12 12 12 12 12 12 12 12 12 12 12 12 12 12 12 12 12 12 12 12 12 12 12 12 12 12 12 12 12 12 12 12 12 12 12 12 12 12 12 12 12 12 12 12 12 12 12 12 12 12 12 12 12 12 12 12 12 12 12 12 12 12 12 12 12 12 12 12 12 12 12 12 12 12 12 12 12 12 12 12 12 12 12 12 12 12 12 12 12 12 12 </DataArray>
</Cells>
<PointData>
<DataArray Name="Uz 0" NumberOfComponents="1" format="ascii" type="Float32">4720.51 -4835.03 4686.52 287.358 3078.99 6300.3 8062.18 7622.95 -456.128 7842.91 4117.36 158.047 -4477.56 14011.9 1671.2 4044.95 -4576.49 13917.7 4033.86 4047.17 -219.185 6069.06 3680.96 2142.31 4910.39 588.147 1923.78 3700 -855.193 6298.73 428.764 1811.24 1549.19 3558.24 5175.98 -349.253 4018.39 2024.95 3644.41 5953.99 9288.13 -3683.39 2119.83 2040.97 -3860.44 9465.18 2406.46 2925.74 2459.72 3145.02 3184.39 1093.1 1136.11 1977.63 1392.04 2046.28 -15.9142 3129.66 1720.26 1762.09 3253.05 -139.304 2202.9 1370.42 2355.67 758.078 847.932 2390.87 2393.73 720.018 1820.69 749.94 381031 121034 378292 312742 468310 465910 389100 116325 191229 451664 466787 299939 119380 117654 132325 466188 127158 127158 462899 199085 350679 341149 451205 516721 517831 512932 451205 348512 202151 194819 456318 349371 208901 516206 456318 334603 197083 508168 441567 334603 125541 125541 124467 123772 123464 123464 532990 534154 535886 535886 535645 559891 559480 559480 556863 554381 492409 492409 489319 486126 482712 482712 373994 371520 368737 368737 363218 214954 210433 210433 208857 206708 5.45829e+06 5.42076e+06 5.43422e+06 5.56968e+06 5.45631e+06 5.43549e+06 5.3984e+06 5.51141e+06 5.61936e+06 5.48115e+06 5.44232e+06 5.38402e+06 5.54386e+06 5.44695e+06 5.57725e+06 5.46114e+06 5.41275e+06 5.41275e+06 5.4318e+06 5.53017e+06 5.55181e+06 5.41316e+06 5.44841e+06 5.45809e+06 5.47336e+06 5.42795e+06 5.44841e+06 5.50559e+06 5.59401e+06 5.40385e+06 5.54005e+06 5.59596e+06 5.65295e+06 5.48857e+06 5.54005e+06 5.37009e+06 5.34555e+06 5.41411e+06 5.38975e+06 5.37009e+06 5.56207e+06 5.56207e+06 5.52353e+06 5.4862e+06 5.44769e+06 5.44769e+06 5.43459e+06 5.44217e+06 5.44997e+06 5.44997e+06 5.45789e+06 5.47703e+06 5.45972e+06 5.45972e+06 5.44287e+06 5.42604e+06 5.51777e+06 5.51777e+06 5.48314e+06 5.44912e+06 5.41474e+06 5.41474e+06 5.56527e+06 5.51271e+06 5.45984e+06 5.45984e+06 5.40747e+06 5.61082e+06 5.53955e+06 5.53955e+06 5.46883e+06 5.39791e+06 </DataArray>
<DataArray Name="Uz 1" NumberOfComponents="1" format="ascii" type="Float32">18750 9291.34 18846.9 1440.68 4155.63 -268.881 7928.07 1464.09 9053.88 6262.25 3040.94 1279.06 1718.29 13817.4 -4476.14 5296.29 1631.83 6579.19 2762.04 1664.57 1904.74 508.084 5269.24 3573.51 3462.43 5096.66 335.507 1598.53 1557.57 6539.27 528.973 2002.4 3793.5 -934.528 5075.77 305.903 1773.78 1586.35 3579.79 5298.84 4945.77 4868.15 736.594 3563.77 596.64 3962.81 1641.93 2679 2693.08 1678.44 3926.3 2020.65 1418.3 2054.59 1059.15 1067.46 1026.73 1072.57 2041.18 1351.65 2130.06 -409.975 3523.72 1743.33 1821.59 3707.3 -593.552 722.872 1837.44 777.463 2336.28 2363.81 123171 381031 121034 400906 467608 181367 444994 115746 312742 468310 465910 389100 116325 129983 129983 466188 129522 463537 463537 196655 348512 456175 447457 515094 516721 456175 447457 345325 199085 207978 516904 455662 349371 207978 516904 442181 333831 197083 508168 442181 128244 121778 121778 123772 126190 533830 533830 534154 535065 536492 536492 559891 558693 557647 557647 554381 491680 490070 490070 486126 481990 374759 374759 371520 367913 364055 364055 214954 211578 207708 207708 206708 5.5456e+06 5.45829e+06 5.42076e+06 5.52482e+06 5.4494e+06 5.36237e+06 5.41935e+06 5.47959e+06 5.56968e+06 5.45631e+06 5.43549e+06 5.3984e+06 5.51141e+06 5.5774e+06 5.5774e+06 5.46114e+06 5.41267e+06 5.43153e+06 5.43153e+06 5.46702e+06 5.50559e+06 5.51072e+06 5.4175e+06 5.44294e+06 5.45809e+06 5.51072e+06 5.4175e+06 5.45898e+06 5.53017e+06 5.6539e+06 5.48858e+06 5.53987e+06 5.59596e+06 5.6539e+06 5.48858e+06 5.38943e+06 5.36967e+06 5.34555e+06 5.41411e+06 5.38943e+06 5.56172e+06 5.52375e+06 5.52375e+06 5.4862e+06 5.44781e+06 5.43442e+06 5.43442e+06 5.44217e+06 5.45014e+06 5.45772e+06 5.45772e+06 5.47703e+06 5.45985e+06 5.44271e+06 5.44271e+06 5.42604e+06 5.51776e+06 5.48313e+06 5.48313e+06 5.44912e+06 5.41496e+06 5.56471e+06 5.56471e+06 5.51271e+06 5.45959e+06 5.40808e+06 5.40808e+06 5.61082e+06 5.53932e+06 5.4689e+06 5.4689e+06 5.39791e+06 </DataArray>
<DataArray Name="Uz 2" NumberOfComponents="1" format="ascii" type="Float32">9325.33 -4738.11 9797.36 1498.32 5223.88 9183.19 13818.8 -4670.62 7900.55 5185.6 9610.12 1413.17 7877.14 7670.03 2792.64 6548.6 7709.41 5307.38 6459.94 -693.992 4006.21 2094.12 694.35 5016.59 2031.23 3510.62 5823.93 -464.319 3940.17 -244.807 4055.55 2046.5 3602.34 5849.55 6420.67 465.589 1960.34 3830.96 -815.928 5139.15 658.973 3484.92 511.948 5092.79 5008.1 3198.28 3181.7 2423.05 2911.66 2420.35 174.303 2939.44 1695.45 1721.7 3014.39 99.3513 2087.01 1393.49 2161.61 952.136 983.681 910.846 985.634 2128.11 1292.16 2265.81 4037.04 -923.295 1276.3 1293.06 -832.7 3946.45 378292 123171 191229 451664 466787 299939 119380 117654 400906 467608 181367 444994 115746 132325 466873 466873 129522 462899 202151 194819 345325 454088 517831 512932 515094 454088 350679 341149 196655 350090 208901 516206 455662 350090 196105 508832 441567 333831 196105 508832 128244 124467 121075 121075 126190 532990 534973 534973 535065 535645 560673 560673 558693 556863 555157 555157 491680 489319 486862 486862 481990 373994 372316 372316 367913 363218 213841 213841 211578 208857 205608 205608 5.43422e+06 5.5456e+06 5.61936e+06 5.48115e+06 5.44232e+06 5.38402e+06 5.54386e+06 5.44695e+06 5.52482e+06 5.4494e+06 5.36237e+06 5.41935e+06 5.47959e+06 5.57725e+06 5.46116e+06 5.46116e+06 5.41267e+06 5.4318e+06 5.59401e+06 5.40385e+06 5.45898e+06 5.47936e+06 5.47336e+06 5.42795e+06 5.44294e+06 5.47936e+06 5.55181e+06 5.41316e+06 5.46702e+06 5.59554e+06 5.65295e+06 5.48857e+06 5.53987e+06 5.59554e+06 5.34493e+06 5.41384e+06 5.38975e+06 5.36967e+06 5.34493e+06 5.41384e+06 5.56172e+06 5.52353e+06 5.48621e+06 5.48621e+06 5.44781e+06 5.43459e+06 5.442e+06 5.442e+06 5.45014e+06 5.45789e+06 5.47691e+06 5.47691e+06 5.45985e+06 5.44287e+06 5.42586e+06 5.42586e+06 5.51776e+06 5.48314e+06 5.44892e+06 5.44892e+06 5.41496e+06 5.56527e+06 5.51252e+06 5.51252e+06 5.45959e+06 5.40747e+06 5.61097e+06 5.61097e+06 5.53932e+06 5.46883e+06 5.39807e+06 5.39807e+06 </DataArray>
</PointData>
<CellData/>
</Piece>
</UnstructuredGrid>
</VTKFile>
