<?xml version="1.0" ?>
<VTKFile byte_order="LittleEndian" type="UnstructuredGrid" version="0.1">
<UnstructuredGrid>
<Piece NumberOfCells="125" NumberOfPoints="216">
<Points>
<DataArray Name="vertices" NumberOfComponents="3" format="ascii" type="Float32">0.000329417 1.18056 10.0941 0 0 0 -0.000172035 3.15035 9.74857 0 2 0 1.99967 1.18056 10.0941 2 0 0 2.00017 3.15035 9.74857 2 2 0 0.0121646 0.0674208 2.05649 0.00775458 0.244645 4.10024 0.00531511 0.51019 6.11978 0.00269019 0.831069 8.11619 0.000346159 1.57374 10.0244 0.000160189 1.96738 9.95571 -2.51095e-05 2.36145 9.88722 -0.000204595 2.75585 9.81839 -0.0123152 2.06411 1.94269 -0.00790782 2.23288 3.88529 -0.0052475 2.4894 5.83271 -0.00261305 2.8036 7.78648 0 0.4 0 0 0.8 0 0 1.2 0 0 1.6 0 1.98784 0.0674208 2.05649 1.99225 0.244645 4.10024 1.99468 0.51019 6.11978 1.99731 0.831069 8.11619 1.99965 1.57374 10.0244 1.99984 1.96738 9.95571 2.00003 2.36145 9.88722 2.0002 2.75585 9.81839 2.01232 2.06411 1.94269 2.00791 2.23288 3.88529 2.00525 2.4894 5.83271 2.00261 2.8036 7.78648 2 0.4 0 2 0.8 0 2 1.2 0 2 1.6 0 0.4 0 0 0.8 0 0 1.2 0 0 1.6 0 0 0.40016 1.18014 10.0943 0.800051 1.18003 10.0943 1.19995 1.18003 10.0943 1.59984 1.18014 10.0943 0.4 2 0 0.8 2 0 1.2 2 0 1.6 2 0 0.399934 3.14989 9.74843 0.799979 3.1498 9.74845 1.20002 3.1498 9.74845 1.60007 3.14989 9.74843 0.00708466 0.462822 2.03286 0.00224944 0.860225 2.01071 -0.00254547 1.25955 1.98896 -0.00730961 1.66082 1.96662 0.00461762 0.640019 4.05703 0.00153916 1.0365 4.01442 -0.00155155 1.43417 3.97194 -0.00466271 1.83301 3.92908 0.00312546 0.904289 6.06198 0.00105208 1.29937 6.00501 -0.00100058 1.69528 5.94819 -0.00306439 2.09197 5.89099 0.00158142 1.22481 8.04969 0.000558191 1.61905 7.98414 -0.000463207 2.01367 7.91886 -0.00149049 2.40856 7.85321 1.99842 1.22481 8.04969 1.99944 1.61905 7.98414 2.00046 2.01367 7.91886 2.00149 2.40856 7.85321 1.99687 0.904289 6.06198 1.99895 1.29937 6.00501 2.001 1.69528 5.94819 2.00306 2.09197 5.89099 1.99538 0.640019 4.05703 1.99846 1.0365 4.01442 2.00155 1.43417 3.97194 2.00466 1.83301 3.92908 1.99292 0.462822 2.03286 1.99775 0.860225 2.01071 2.00255 1.25955 1.98896 2.00731 1.66082 1.96662 0.407101 0.0712836 2.05568 0.40471 0.247203 4.10045 0.403136 0.511864 6.11974 0.401613 0.83208 8.11628 0.802327 0.0731006 2.05555 0.801579 0.248457 4.10032 0.80104 0.512685 6.1197 0.800536 0.832522 8.11622 1.19767 0.0731006 2.05555 1.19842 0.248457 4.10032 1.19896 0.512685 6.1197 1.19946 0.832522 8.11622 1.5929 0.0712836 2.05568 1.59529 0.247203 4.10045 1.59686 0.511864 6.11974 1.59839 0.83208 8.11628 1.60722 2.068 1.94312 1.60483 2.23546 3.88443 1.6031 2.49101 5.83224 1.60157 2.80454 7.78606 1.20237 2.06984 1.94303 1.20162 2.23675 3.88429 1.20103 2.49182 5.83202 1.20052 2.80497 7.78597 0.797627 2.06984 1.94303 0.798379 2.23675 3.88429 0.79897 2.49182 5.83202 0.799477 2.80497 7.78597 0.392782 2.068 1.94312 0.395172 2.23546 3.88443 0.396898 2.49101 5.83224 0.398426 2.80454 7.78606 0.4 0.4 0 0.8 0.4 0 1.2 0.4 0 1.6 0.4 0 0.4 0.8 0 0.8 0.8 0 1.2 0.8 0 1.6 0.8 0 0.4 1.2 0 0.8 1.2 0 1.2 1.2 0 1.6 1.2 0 0.4 1.6 0 0.8 1.6 0 1.2 1.6 0 1.6 1.6 0 0.399865 2.75554 9.81824 0.799959 2.75543 9.81818 1.20004 2.75543 9.81818 1.60014 2.75554 9.81824 0.399973 2.36125 9.88716 0.799989 2.36116 9.88713 1.20001 2.36116 9.88713 1.60003 2.36125 9.88716 0.400111 1.9672 9.95576 0.80004 1.96712 9.95579 1.19996 1.96712 9.95579 1.59989 1.9672 9.95576 0.400224 1.57349 10.0246 0.800072 1.57339 10.0247 1.19993 1.57339 10.0247 1.59978 1.57349 10.0246 0.400949 1.22577 8.04976 0.800317 1.22623 8.04975 1.19968 1.22623 8.04975 1.59905 1.22577 8.04976 0.40033 1.61995 7.98406 0.800109 1.6204 7.98402 1.19989 1.6204 7.98402 1.59967 1.61995 7.98406 0.399721 2.01455 7.91863 0.799907 2.01499 7.91853 1.20009 2.01499 7.91853 1.60028 2.01455 7.91863 0.399099 2.40944 7.85283 0.799697 2.40988 7.85268 1.2003 2.40988 7.85268 1.6009 2.40944 7.85283 0.401864 0.905965 6.06191 0.800621 0.906785 6.06188 1.19938 0.906785 6.06188 1.59814 0.905965 6.06191 0.400623 1.30101 6.00482 0.800208 1.30184 6.00474 1.19979 1.30184 6.00474 1.59938 1.30101 6.00482 0.399406 1.69691 5.94787 0.799801 1.69772 5.9477 1.2002 1.69772 5.9477 1.60059 1.69691 5.94787 0.398169 2.09359 5.89055 0.79939 2.09439 5.89032 1.20061 2.09439 5.89032 1.60183 2.09359 5.89055 0.402817 0.64256 4.05718 0.800946 0.64385 4.05713 1.19905 0.64385 4.05713 1.59718 0.64256 4.05718 0.40093 1.03901 4.01427 0.800311 1.0403 4.01417 1.19969 1.0403 4.01417 1.59907 1.03901 4.01427 0.399043 1.43667 3.97148 0.799676 1.43797 3.97129 1.20032 1.43797 3.97129 1.60096 1.43667 3.97148 0.39713 1.83553 3.9283 0.799031 1.83683 3.92805 1.20097 1.83683 3.92805 1.60287 1.83553 3.9283 0.404179 0.466593 2.03213 0.801381 0.468341 2.0319 1.19862 0.468341 2.0319 1.59582 0.466593 2.03213 0.401304 0.863933 2.01033 0.80043 0.865675 2.01017 1.19957 0.865675 2.01017 1.5987 0.863933 2.01033 0.398478 1.26325 1.98895 0.799493 1.265 1.98891 1.20051 1.265 1.98891 1.60152 1.26325 1.98895 0.395649 1.66458 1.96698 0.798559 1.66635 1.96701 1.20144 1.66635 1.96701 1.60435 1.66458 1.96698 </DataArray>
</Points>
<Cells>
<DataArray Name="connectivity" format="ascii" type="Int32">0 12 68 11 44 148 152 91 44 148 152 91 45 149 153 95 45 149 153 95 46 150 154 99 46 150 154 99 47 151 155 103 47 151 155 103 4 28 72 27 12 13 69 68 148 144 156 152 148 144 156 152 149 145 157 153 149 145 157 153 150 146 158 154 150 146 158 154 151 147 159 155 151 147 159 155 28 29 73 72 13 14 70 69 144 140 160 156 144 140 160 156 145 141 161 157 145 141 161 157 146 142 162 158 146 142 162 158 147 143 163 159 147 143 163 159 29 30 74 73 14 15 71 70 140 136 164 160 140 136 164 160 141 137 165 161 141 137 165 161 142 138 166 162 142 138 166 162 143 139 167 163 143 139 167 163 30 31 75 74 15 2 19 71 136 52 119 164 136 52 119 164 137 53 115 165 137 53 115 165 138 54 111 166 138 54 111 166 139 55 107 167 139 55 107 167 31 6 35 75 11 68 64 10 91 152 168 90 91 152 168 90 95 153 169 94 95 153 169 94 99 154 170 98 99 154 170 98 103 155 171 102 103 155 171 102 27 72 76 26 68 69 65 64 152 156 172 168 152 156 172 168 153 157 173 169 153 157 173 169 154 158 174 170 154 158 174 170 155 159 175 171 155 159 175 171 72 73 77 76 69 70 66 65 156 160 176 172 156 160 176 172 157 161 177 173 157 161 177 173 158 162 178 174 158 162 178 174 159 163 179 175 159 163 179 175 73 74 78 77 70 71 67 66 160 164 180 176 160 164 180 176 161 165 181 177 161 165 181 177 162 166 182 178 162 166 182 178 163 167 183 179 163 167 183 179 74 75 79 78 71 19 18 67 164 119 118 180 164 119 118 180 165 115 114 181 165 115 114 181 166 111 110 182 166 111 110 182 167 107 106 183 167 107 106 183 75 35 34 79 10 64 60 9 90 168 184 89 90 168 184 89 94 169 185 93 94 169 185 93 98 170 186 97 98 170 186 97 102 171 187 101 102 171 187 101 26 76 80 25 64 65 61 60 168 172 188 184 168 172 188 184 169 173 189 185 169 173 189 185 170 174 190 186 170 174 190 186 171 175 191 187 171 175 191 187 76 77 81 80 65 66 62 61 172 176 192 188 172 176 192 188 173 177 193 189 173 177 193 189 174 178 194 190 174 178 194 190 175 179 195 191 175 179 195 191 77 78 82 81 66 67 63 62 176 180 196 192 176 180 196 192 177 181 197 193 177 181 197 193 178 182 198 194 178 182 198 194 179 183 199 195 179 183 199 195 78 79 83 82 67 18 17 63 180 118 117 196 180 118 117 196 181 114 113 197 181 114 113 197 182 110 109 198 182 110 109 198 183 106 105 199 183 106 105 199 79 34 33 83 9 60 56 8 89 184 200 88 89 184 200 88 93 185 201 92 93 185 201 92 97 186 202 96 97 186 202 96 101 187 203 100 101 187 203 100 25 80 84 24 60 61 57 56 184 188 204 200 184 188 204 200 185 189 205 201 185 189 205 201 186 190 206 202 186 190 206 202 187 191 207 203 187 191 207 203 80 81 85 84 61 62 58 57 188 192 208 204 188 192 208 204 189 193 209 205 189 193 209 205 190 194 210 206 190 194 210 206 191 195 211 207 191 195 211 207 81 82 86 85 62 63 59 58 192 196 212 208 192 196 212 208 193 197 213 209 193 197 213 209 194 198 214 210 194 198 214 210 195 199 215 211 195 199 215 211 82 83 87 86 63 17 16 59 196 117 116 212 196 117 116 212 197 113 112 213 197 113 112 213 198 109 108 214 198 109 108 214 199 105 104 215 199 105 104 215 83 33 32 87 8 56 20 1 88 200 120 40 88 200 120 40 92 201 121 41 92 201 121 41 96 202 122 42 96 202 122 42 100 203 123 43 100 203 123 43 24 84 36 5 56 57 21 20 200 204 124 120 200 204 124 120 201 205 125 121 201 205 125 121 202 206 126 122 202 206 126 122 203 207 127 123 203 207 127 123 84 85 37 36 57 58 22 21 204 208 128 124 204 208 128 124 205 209 129 125 205 209 129 125 206 210 130 126 206 210 130 126 207 211 131 127 207 211 131 127 85 86 38 37 58 59 23 22 208 212 132 128 208 212 132 128 209 213 133 129 209 213 133 129 210 214 134 130 210 214 134 130 211 215 135 131 211 215 135 131 86 87 39 38 59 16 3 23 212 116 48 132 212 116 48 132 213 112 49 133 213 112 49 133 214 108 50 134 214 108 50 134 215 104 51 135 215 104 51 135 87 32 7 39 </DataArray>
<DataArray Name="offsets" format="ascii" type="Int32">8 16 24 32 40 48 56 64 72 80 88 96 104 112 120 128 136 144 152 160 168 176 184 192 200 208 216 224 232 240 248 256 264 272 280 288 296 304 312 320 328 336 344 352 360 368 376 384 392 400 408 416 424 432 440 448 456 464 472 480 488 496 504 512 520 528 536 544 552 560 568 576 584 592 600 608 616 624 632 640 648 656 664 672 680 688 696 704 712 720 728 736 744 752 760 768 776 784 792 800 808 816 824 832 840 848 856 864 872 880 888 896 904 912 920 928 936 944 952 960 968 976 984 992 1000 </DataArray>
<DataArray Name="types" format="ascii" type="UInt8">12 12 12 12 12 12 12 12 12 12 12 12 12 12 12 12 12 12 12 12 12 12 12 12 12 12 12 12 12 12 12 12 12 12 12 12 12 12 12 12 12 12 12 12 12 12 12 12 12 12 12 12 12 12 12 12 12 12 12 12 12 12 12 12 12 12 12 12 12 12 12 12 12 12 12 12 12 12 12 12 12 12 12 12 12 12 12 12 12 12 12 12 12 12 12 12 12 12 12 12 12 12 12 12 12 12 12 12 12 12 12 12 12 12 12 12 12 12 12 12 12 12 12 12 12 </DataArray>
</Cells>
<PointData>
<DataArray Name="Uz 0" NumberOfComponents="1" format="ascii" type="Float32">-265.554 -259.262 -282.994 -1602.51 -231.446 609.48 132.726 345.761 2058.09 1413.8 144.197 741.248 -203.011 649.874 57.9953 62.5745 -267.498 700.747 43.8483 -2000.9 -1708.5 -786.795 -597.654 -486.843 1125.52 58.1259 857.604 1635.85 2313.79 2316.74 -938.497 -299.94 519.862 413.301 1198.45 514.085 570.865 34.7653 123.393 -254.135 444.963 -185.014 97.651 91.8918 -198.592 458.541 29.9059 143.136 -17.5742 277.524 231.589 -146.394 -330.951 475.368 131.975 88.1253 -881.203 1025.62 308.099 -84.6023 -180.865 325.281 481.204 -266.868 -734.02 878.436 280.223 -378.19 -1311.15 1455.57 534.008 -399.783 82277 -7080.39 80850.5 46814.4 110551 109785 73975.6 4119.4 13887.7 102651 110104 40788.9 8629.09 -4072.76 14275.1 109991 -7497.01 -7497.01 107657 17831.2 55462.4 52399.1 93001.1 122834 123371 120995 93001.1 54695.9 16798.3 19856.7 94863.5 56184.7 17597.3 122726 94863.5 49256.9 18981.7 118435 88715.1 49256.9 11554.3 11554.3 6421.27 1524.04 -3440.81 -3440.81 130957 131551 132387 132387 132255 136204 136098 136098 134892 133750 104701 104701 103824 102826 101836 101836 61212.1 60381.2 59605.1 59605.1 57886.6 19056.8 20194.9 20194.9 21395.4 22675.3 563561 179579 557548 469302 691901 686631 571901 173713 288531 669528 688486 440951 178692 174846 198391 689177 188616 188616 681957 297531 524436 503330 666881 763527 766368 755599 666881 518892 303913 287614 680728 524687 315651 765200 680728 491448 289378 747531 648667 491448 188132 188132 186022 184473 183506 183506 785359 787690 790876 790876 791187 828633 826652 826652 821487 816519 732420 732420 725470 718427 711035 711035 559489 553184 546440 546440 535626 323369 314606 314606 310255 305037 </DataArray>
<DataArray Name="Uz 1" NumberOfComponents="1" format="ascii" type="Float32">898.225 915.428 909.136 -1291.92 10.1524 -1689.28 609.745 70.5454 2035.76 664.696 -176.231 300.524 87.4884 688.567 -255.317 370.675 53.1316 735.396 -302.147 -1990.2 -1375.9 -1314.42 -286.491 -132.619 746.793 1574.37 546.441 1323.21 2260.85 -1092.77 -725.819 -225.026 559.89 1352.72 985.768 159.833 260.152 -310.915 225.184 100.117 236.768 225.368 34.5818 168.058 18.1778 420.13 -160.18 116.814 82.5359 -173.852 433.801 290.81 -61.9821 -104.867 249.283 56.2912 -244.924 -634.188 778.605 229.019 -9.71534 -1153.01 1297.43 411.284 -199.681 -545.729 690.145 522.606 -385.299 -1317.99 1462.41 544.199 9265.57 82277 -7080.39 78794.2 110327 15111.6 98890.4 -53.1106 46814.4 110551 109785 73975.6 4119.4 14056 14056 109991 -7262.88 107985 107985 18833.5 54695.9 94391.1 91780.9 122048 122834 94391.1 91780.9 53738.3 17831.2 17492.6 123072 94630.9 56184.7 17492.6 123072 89026.3 49038.7 18981.7 118435 89026.3 11768.9 6197.87 6197.87 1524.04 -3161.78 131393 131393 131551 131968 132703 132703 136204 135698 135286 135286 133750 104402 104130 104130 102826 101507 61480.1 61480.1 60381.2 59352.6 58130.2 58130.2 19056.8 20258.9 21367.7 21367.7 22675.3 184340 563561 179579 597937 690288 266608 654866 172424 469302 691901 686631 571901 173713 194909 194909 689177 192146 682863 682863 292128 518892 678475 659246 759949 763527 678475 659246 511833 297531 314306 766225 679749 524687 314306 766225 649557 490277 289378 747531 649557 192153 182016 182016 184473 187579 786570 786570 787690 789690 792412 792412 828633 825510 822622 822622 816519 731348 726576 726576 718427 709979 560608 560608 553184 545197 536905 536905 323369 316304 308548 308548 305037 </DataArray>
<DataArray Name="Uz 2" NumberOfComponents="1" format="ascii" type="Float32">932.868 -248.351 -1624.84 -980.546 289.053 -307.998 636.261 -216.625 1725.17 423.097 2122.53 -176.495 362.704 375.254 -246.792 680.042 380.118 389.401 -2053.85 -2056.79 -1063.26 -941.575 -865.574 201.824 392.569 1201.52 1968.45 1046.75 2250.14 -1166.38 -259.912 -153.351 484.975 1426.33 1465.59 -152.692 136.557 -0.202438 -1205.64 412.641 23.1818 162.299 18.6438 241.306 241.772 230.044 170.582 89.3672 177.414 28.3608 -582.801 727.218 206.399 12.4419 116.156 28.26 389.341 -163.683 -399.96 544.377 154.132 -336.787 -938.318 1082.73 344.098 -135.806 -1313.17 1457.58 529.715 -389.591 -1354.78 1499.2 80850.5 9265.57 13887.7 102651 110104 40788.9 8629.09 -4072.76 78794.2 110327 15111.6 98890.4 -53.1106 14275.1 110348 110348 -7262.88 107657 16798.3 19856.7 53738.3 93886 123371 120995 122048 93886 55462.4 52399.1 18833.5 56436.5 17597.3 122726 94630.9 56436.5 19003.5 118778 88715.1 49038.7 19003.5 118778 11768.9 6421.27 1273.33 1273.33 -3161.78 130957 131988 131988 131968 132255 136604 136604 135698 134892 134138 134138 104402 103824 103169 103169 101507 61212.1 60642.7 60642.7 59352.6 57886.6 19024.6 19024.6 20258.9 21395.4 22611.3 22611.3 557548 184340 288531 669528 688486 440951 178692 174846 597937 690288 266608 654866 172424 198391 690185 690185 192146 681957 303913 287614 511833 673241 766368 755599 759949 673241 524436 503330 292128 525742 315651 765200 679749 525742 287910 748481 648667 490277 287910 748481 192153 186022 180450 180450 187579 785359 788872 788872 789690 791187 829770 829770 825510 821487 817642 817642 731348 725470 719502 719502 709979 559489 554368 554368 545197 535626 321713 321713 316304 310255 303412 303412 </DataArray>
</PointData>
<CellData/>
</Piece>
</UnstructuredGrid>
</VTKFile>
