<?xml version="1.0" ?>
<VTKFile byte_order="LittleEndian" type="UnstructuredGrid" version="0.1">
<UnstructuredGrid>
<Piece NumberOfCells="8" NumberOfPoints="27">
<Points>
<DataArray Name="vertices" NumberOfComponents="3" format="ascii" type="Float32">2.88582e-05 1.59536 10.0986 0 0 0 -0.000373763 3.54089 9.63606 0 2 0 1.99997 1.59536 10.0986 2 0 0 2.00037 3.54089 9.63606 2 2 0 0.0132091 0.506767 5.15148 1.24711e-05 2.56688 9.86796 -0.0138285 2.48238 4.81583 0 1 0 1.98679 0.506767 5.15148 1.99999 2.56688 9.86796 2.01383 2.48238 4.81583 2 1 0 1 0 0 1 1.59377 10.0998 1 2 0 1 3.53907 9.63494 -0.0003512 1.4889 4.98355 2.00035 1.4889 4.98355 1 0.513758 5.15014 1 2.48948 4.81509 1 1 0 1 2.5657 9.86793 1 1.49578 4.98255 </DataArray>
</Points>
<Cells>
<DataArray Name="connectivity" format="ascii" type="Int32">0 9 20 8 17 25 26 22 17 25 26 22 4 13 21 12 9 2 10 20 25 19 23 26 25 19 23 26 13 6 14 21 8 20 11 1 22 26 24 16 22 26 24 16 12 21 15 5 20 10 3 11 26 23 18 24 26 23 18 24 21 14 7 15 </DataArray>
<DataArray Name="offsets" format="ascii" type="Int32">8 16 24 32 40 48 56 64 </DataArray>
<DataArray Name="types" format="ascii" type="UInt8">12 12 12 12 12 12 12 12 </DataArray>
</Cells>
<PointData>
<DataArray Name="Uz 0" NumberOfComponents="1" format="ascii" type="Float32">-0.993585 -0.993261 -0.993448 -1.00036 -1.00011 -1.00035 -1.00012 -1.00007 -1.00007 -0.494373 -0.34282 -0.486873 -0.54081 -0.446497 -0.344451 -0.344644 -0.462295 -0.347203 -2.48267 -2.44985 -2.45085 -2.4588 -2.50917 -2.49178 -2.43562 -2.46654 -2.49137 </DataArray>
<DataArray Name="Uz 1" NumberOfComponents="1" format="ascii" type="Float32">-1.00678 -1.00677 -1.00709 -0.999992 -0.999875 -1.00012 -1.00012 -1.00007 -1.00007 -0.348917 -0.494373 -0.34282 -0.439221 -0.54081 -0.352736 -0.531372 -0.466588 -0.576856 -2.53376 -2.48266 -2.44985 -2.44109 -2.45866 -2.54731 -2.43721 -2.51831 -2.45251 </DataArray>
<DataArray Name="Uz 2" NumberOfComponents="1" format="ascii" type="Float32">-1.0069 -0.993571 -1.00013 -0.999883 -1.00024 -1.00012 -1.00008 -1.00007 -1.00004 -0.486873 -0.348917 -0.446497 -0.344451 -0.439221 -0.541486 -0.462295 -0.457811 -0.475125 -2.45104 -2.53376 -2.51821 -2.49178 -2.43211 -2.48048 -2.47736 -2.42534 -2.46974 </DataArray>
</PointData>
<CellData/>
</Piece>
</UnstructuredGrid>
</VTKFile>
