<?xml version="1.0" ?>
<VTKFile byte_order="LittleEndian" type="UnstructuredGrid" version="0.1">
<UnstructuredGrid>
<Piece NumberOfCells="125" NumberOfPoints="216">
<Points>
<DataArray Name="vertices" NumberOfComponents="3" format="ascii" type="Float32">9.35318e-05 0.394808 10.0495 0 0 0 -7.56281e-05 2.39138 9.93267 0 2 0 1.99991 0.394808 10.0495 2 0 0 2.00008 2.39138 9.93267 2 2 0 0.0041066 0.0222494 2.01907 0.00262952 0.0808979 4.03538 0.00178493 0.169385 6.04574 0.000899619 0.276983 8.05019 0.000101028 0.793885 10.0259 3.89728e-05 1.19308 10.0027 -2.35827e-05 1.5924 9.97952 -8.49048e-05 1.99185 9.95627 -0.00412353 2.02188 1.98084 -0.00264683 2.07957 3.96299 -0.00177724 2.16703 5.94889 -0.000890796 2.27387 7.93879 0 0.4 0 0 0.8 0 0 1.2 0 0 1.6 0 1.99589 0.0222494 2.01907 1.99737 0.0808979 4.03538 1.99822 0.169385 6.04574 1.9991 0.276983 8.05019 1.9999 0.793885 10.0259 1.99996 1.19308 10.0027 2.00002 1.5924 9.97952 2.00008 1.99185 9.95627 2.00412 2.02188 1.98084 2.00265 2.07957 3.96299 2.00178 2.16703 5.94889 2.00089 2.27387 7.93879 2 0.4 0 2 0.8 0 2 1.2 0 2 1.6 0 0.4 0 0 0.8 0 0 1.2 0 0 1.6 0 0 0.400044 0.394662 10.0495 0.800014 0.394629 10.0495 1.19999 0.394629 10.0495 1.59996 0.394662 10.0495 0.4 2 0 0.8 2 0 1.2 2 0 1.6 2 0 0.399967 2.39123 9.93262 0.79999 2.3912 9.93263 1.20001 2.3912 9.93263 1.60003 2.39123 9.93262 0.00240674 0.420849 2.0111 0.000789228 0.820124 2.00364 -0.000822545 1.22005 1.99633 -0.00243204 1.62062 1.98884 0.00156077 0.479867 4.02076 0.000519977 0.879203 4.00638 -0.000521347 1.27894 3.99208 -0.00156583 1.67907 3.97767 0.00104719 0.568338 6.02619 0.000349047 0.967597 6.00694 -0.000343173 1.36713 5.98777 -0.00104024 1.76694 5.9685 0.000523716 0.676123 8.02769 0.000177823 1.0754 8.00554 -0.000166986 1.47479 7.98348 -0.000513332 1.87428 7.96131 1.99948 0.676123 8.02769 1.99982 1.0754 8.00554 2.00017 1.47479 7.98348 2.00051 1.87428 7.96131 1.99895 0.568338 6.02619 1.99965 0.967597 6.00694 2.00034 1.36713 5.98777 2.00104 1.76694 5.9685 1.99844 0.479867 4.02076 1.99948 0.879203 4.00638 2.00052 1.27894 3.99208 2.00157 1.67907 3.97767 1.99759 0.420849 2.0111 1.99921 0.820124 2.00364 2.00082 1.22005 1.99633 2.00243 1.62062 1.98884 0.4024 0.0235531 2.01884 0.4016 0.0817671 4.03552 0.401054 0.169948 6.04579 0.40054 0.27732 8.05026 0.800788 0.024168 2.01882 0.800536 0.0821964 4.0355 0.80035 0.170226 6.0458 0.800179 0.27747 8.05026 1.19921 0.024168 2.01882 1.19946 0.0821964 4.0355 1.19965 0.170226 6.0458 1.19982 0.27747 8.05026 1.5976 0.0235531 2.01884 1.5984 0.0817671 4.03552 1.59895 0.169948 6.04579 1.59946 0.27732 8.05026 1.60241 2.02318 1.98102 1.60161 2.08044 3.96278 1.60105 2.16758 5.94878 1.60054 2.27419 7.93868 1.20079 2.0238 1.98102 1.20054 2.08087 3.96276 1.20035 2.16786 5.94874 1.20018 2.27434 7.93867 0.799207 2.0238 1.98102 0.799459 2.08087 3.96276 0.799651 2.16786 5.94874 0.799822 2.27434 7.93867 0.397586 2.02318 1.98102 0.398387 2.08044 3.96278 0.39895 2.16758 5.94878 0.399464 2.27419 7.93868 0.4 0.4 0 0.8 0.4 0 1.2 0.4 0 1.6 0.4 0 0.4 0.8 0 0.8 0.8 0 1.2 0.8 0 1.6 0.8 0 0.4 1.2 0 0.8 1.2 0 1.2 1.2 0 1.6 1.2 0 0.4 1.6 0 0.8 1.6 0 1.2 1.6 0 1.6 1.6 0 0.399944 1.99176 9.95621 0.799983 1.99172 9.95619 1.20002 1.99172 9.95619 1.60006 1.99176 9.95621 0.399981 1.59234 9.9795 0.799993 1.59231 9.97949 1.20001 1.59231 9.97949 1.60002 1.59234 9.9795 0.400028 1.19301 10.0027 0.80001 1.19299 10.0027 1.19999 1.19299 10.0027 1.59997 1.19301 10.0027 0.400066 0.793795 10.026 0.800021 0.793758 10.026 1.19998 0.793758 10.026 1.59993 0.793795 10.026 0.400315 0.676443 8.02775 0.800105 0.676597 8.02777 1.19989 0.676597 8.02777 1.59969 0.676443 8.02775 0.400106 1.0757 8.00554 0.800035 1.07586 8.00555 1.19996 1.07586 8.00555 1.59989 1.0757 8.00554 0.3999 1.47509 7.98344 0.799967 1.47524 7.98342 1.20003 1.47524 7.98342 1.6001 1.47509 7.98344 0.399691 1.87459 7.96122 0.799896 1.87474 7.96119 1.2001 1.87474 7.96119 1.60031 1.87459 7.96122 0.400625 0.568902 6.02622 0.800208 0.569179 6.02624 1.19979 0.569179 6.02624 1.59938 0.568902 6.02622 0.400207 0.968155 6.00693 0.800069 0.968436 6.00693 1.19993 0.968436 6.00693 1.59979 0.968155 6.00693 0.399796 1.36769 5.98772 0.799932 1.36797 5.98769 1.20007 1.36797 5.98769 1.6002 1.36769 5.98772 0.399379 1.7675 5.9684 0.799793 1.76777 5.96835 1.20021 1.76777 5.96835 1.60062 1.7675 5.9684 0.400955 0.480726 4.02088 0.800321 0.481163 4.0209 1.19968 0.481163 4.0209 1.59905 0.480726 4.02088 0.400316 0.880051 4.0064 0.800106 0.88049 4.0064 1.19989 0.88049 4.0064 1.59968 0.880051 4.0064 0.399681 1.27979 3.99199 0.799892 1.28023 3.99196 1.20011 1.28023 3.99196 1.60032 1.27979 3.99199 0.399039 1.67993 3.97748 0.799676 1.68037 3.97743 1.20032 1.68037 3.97743 1.60096 1.67993 3.97748 0.401424 0.422118 2.0109 0.800471 0.422709 2.01084 1.19953 0.422709 2.01084 1.59858 0.422118 2.0109 0.400463 0.821371 2.00355 0.800153 0.821959 2.00352 1.19985 0.821959 2.00352 1.59954 0.821371 2.00355 0.399513 1.22129 1.99637 0.799838 1.22188 1.99637 1.20016 1.22188 1.99637 1.60049 1.22129 1.99637 0.398557 1.62189 1.989 0.799522 1.62248 1.98904 1.20048 1.62248 1.98904 1.60144 1.62189 1.989 </DataArray>
</Points>
<Cells>
<DataArray Name="connectivity" format="ascii" type="Int32">0 12 68 11 44 148 152 91 44 148 152 91 45 149 153 95 45 149 153 95 46 150 154 99 46 150 154 99 47 151 155 103 47 151 155 103 4 28 72 27 12 13 69 68 148 144 156 152 148 144 156 152 149 145 157 153 149 145 157 153 150 146 158 154 150 146 158 154 151 147 159 155 151 147 159 155 28 29 73 72 13 14 70 69 144 140 160 156 144 140 160 156 145 141 161 157 145 141 161 157 146 142 162 158 146 142 162 158 147 143 163 159 147 143 163 159 29 30 74 73 14 15 71 70 140 136 164 160 140 136 164 160 141 137 165 161 141 137 165 161 142 138 166 162 142 138 166 162 143 139 167 163 143 139 167 163 30 31 75 74 15 2 19 71 136 52 119 164 136 52 119 164 137 53 115 165 137 53 115 165 138 54 111 166 138 54 111 166 139 55 107 167 139 55 107 167 31 6 35 75 11 68 64 10 91 152 168 90 91 152 168 90 95 153 169 94 95 153 169 94 99 154 170 98 99 154 170 98 103 155 171 102 103 155 171 102 27 72 76 26 68 69 65 64 152 156 172 168 152 156 172 168 153 157 173 169 153 157 173 169 154 158 174 170 154 158 174 170 155 159 175 171 155 159 175 171 72 73 77 76 69 70 66 65 156 160 176 172 156 160 176 172 157 161 177 173 157 161 177 173 158 162 178 174 158 162 178 174 159 163 179 175 159 163 179 175 73 74 78 77 70 71 67 66 160 164 180 176 160 164 180 176 161 165 181 177 161 165 181 177 162 166 182 178 162 166 182 178 163 167 183 179 163 167 183 179 74 75 79 78 71 19 18 67 164 119 118 180 164 119 118 180 165 115 114 181 165 115 114 181 166 111 110 182 166 111 110 182 167 107 106 183 167 107 106 183 75 35 34 79 10 64 60 9 90 168 184 89 90 168 184 89 94 169 185 93 94 169 185 93 98 170 186 97 98 170 186 97 102 171 187 101 102 171 187 101 26 76 80 25 64 65 61 60 168 172 188 184 168 172 188 184 169 173 189 185 169 173 189 185 170 174 190 186 170 174 190 186 171 175 191 187 171 175 191 187 76 77 81 80 65 66 62 61 172 176 192 188 172 176 192 188 173 177 193 189 173 177 193 189 174 178 194 190 174 178 194 190 175 179 195 191 175 179 195 191 77 78 82 81 66 67 63 62 176 180 196 192 176 180 196 192 177 181 197 193 177 181 197 193 178 182 198 194 178 182 198 194 179 183 199 195 179 183 199 195 78 79 83 82 67 18 17 63 180 118 117 196 180 118 117 196 181 114 113 197 181 114 113 197 182 110 109 198 182 110 109 198 183 106 105 199 183 106 105 199 79 34 33 83 9 60 56 8 89 184 200 88 89 184 200 88 93 185 201 92 93 185 201 92 97 186 202 96 97 186 202 96 101 187 203 100 101 187 203 100 25 80 84 24 60 61 57 56 184 188 204 200 184 188 204 200 185 189 205 201 185 189 205 201 186 190 206 202 186 190 206 202 187 191 207 203 187 191 207 203 80 81 85 84 61 62 58 57 188 192 208 204 188 192 208 204 189 193 209 205 189 193 209 205 190 194 210 206 190 194 210 206 191 195 211 207 191 195 211 207 81 82 86 85 62 63 59 58 192 196 212 208 192 196 212 208 193 197 213 209 193 197 213 209 194 198 214 210 194 198 214 210 195 199 215 211 195 199 215 211 82 83 87 86 63 17 16 59 196 117 116 212 196 117 116 212 197 113 112 213 197 113 112 213 198 109 108 214 198 109 108 214 199 105 104 215 199 105 104 215 83 33 32 87 8 56 20 1 88 200 120 40 88 200 120 40 92 201 121 41 92 201 121 41 96 202 122 42 96 202 122 42 100 203 123 43 100 203 123 43 24 84 36 5 56 57 21 20 200 204 124 120 200 204 124 120 201 205 125 121 201 205 125 121 202 206 126 122 202 206 126 122 203 207 127 123 203 207 127 123 84 85 37 36 57 58 22 21 204 208 128 124 204 208 128 124 205 209 129 125 205 209 129 125 206 210 130 126 206 210 130 126 207 211 131 127 207 211 131 127 85 86 38 37 58 59 23 22 208 212 132 128 208 212 132 128 209 213 133 129 209 213 133 129 210 214 134 130 210 214 134 130 211 215 135 131 211 215 135 131 86 87 39 38 59 16 3 23 212 116 48 132 212 116 48 132 213 112 49 133 213 112 49 133 214 108 50 134 214 108 50 134 215 104 51 135 215 104 51 135 87 32 7 39 </DataArray>
<DataArray Name="offsets" format="ascii" type="Int32">8 16 24 32 40 48 56 64 72 80 88 96 104 112 120 128 136 144 152 160 168 176 184 192 200 208 216 224 232 240 248 256 264 272 280 288 296 304 312 320 328 336 344 352 360 368 376 384 392 400 408 416 424 432 440 448 456 464 472 480 488 496 504 512 520 528 536 544 552 560 568 576 584 592 600 608 616 624 632 640 648 656 664 672 680 688 696 704 712 720 728 736 744 752 760 768 776 784 792 800 808 816 824 832 840 848 856 864 872 880 888 896 904 912 920 928 936 944 952 960 968 976 984 992 1000 </DataArray>
<DataArray Name="types" format="ascii" type="UInt8">12 12 12 12 12 12 12 12 12 12 12 12 12 12 12 12 12 12 12 12 12 12 12 12 12 12 12 12 12 12 12 12 12 12 12 12 12 12 12 12 12 12 12 12 12 12 12 12 12 12 12 12 12 12 12 12 12 12 12 12 12 12 12 12 12 12 12 12 12 12 12 12 12 12 12 12 12 12 12 12 12 12 12 12 12 12 12 12 12 12 12 12 12 12 12 12 12 12 12 12 12 12 12 12 12 12 12 12 12 12 12 12 12 12 12 12 12 12 12 12 12 12 12 12 12 </DataArray>
</Cells>
<PointData>
<DataArray Name="Uz 0" NumberOfComponents="1" format="ascii" type="Float32">-31.1871 -29.2107 -33.1104 -447.15 -35.197 60.779 -168.392 39.3604 650.466 253.65 32.7728 349.32 -23.6548 72.5019 6.09617 8.00663 -29.9684 78.303 3.02904 -704.463 -507.955 -403.896 -274.679 -158.419 235.224 113.617 303.68 494.832 751.715 752.14 -233.495 -97.7853 151.258 68.6387 262.496 248.891 157.047 25.5082 -28.0278 -219.89 50.5269 -21.5261 10.6399 10.4223 -22.0383 51.0391 4.04165 11.4424 -16.15 45.1507 27.0568 -40.5259 -105.81 121.922 37.6048 -13.8078 -239.006 255.118 80.1169 -55.026 -159.485 175.597 125.032 -100.76 -292.516 308.628 102.336 -146.286 -460.269 476.381 163.626 -148.745 8356.45 -3655.72 8185.19 4822.09 11882.8 11895.6 7736.29 222.683 504.618 11077.4 11903.7 3712.04 1672.29 -2562.17 3288.01 11942 -3928.08 -3928.08 11526 1426.73 5872.69 5519.31 10203.4 13603.3 13665.7 13390.3 10203.4 5776.95 968.547 2331.24 10364.9 6191.82 1145.84 13633.8 10364.9 4920.75 2144.83 13053 9682.01 4920.75 2534.82 2534.82 842.136 -789.375 -2463.1 -2463.1 14548 14615.9 14699.6 14699.6 14685.9 15292.1 15295.3 15295.3 15172.7 15055.7 11551.3 11551.3 11548.5 11511 11494.4 11494.4 6697.35 6602.6 6537.67 6537.67 6344.42 1330.75 1855.78 1855.78 2371.08 2916.63 192082 61090.9 191387 155727 236249 235640 197608 58334.4 94817.5 227171 235886 152495 59724 59289.7 66085.2 235047 64196.4 64196.4 234213 99670.1 175207 172801 227813 260680 260825 259583 227813 174914 100592 98745.8 228232 173795 103413 259590 228232 170252 100437 257552 224338 170252 62728.7 62728.7 62363.1 62188.1 62206.3 62206.3 269566 269938 270588 270588 270240 281982 282246 282246 281381 280585 246995 246995 246258 245450 244541 244541 186773 186430 185928 185928 184053 106885 105307 105307 105198 104808 </DataArray>
<DataArray Name="Uz 1" NumberOfComponents="1" format="ascii" type="Float32">101.303 103.689 101.713 -330.162 -16.2686 -609.531 -24.1117 8.33485 495.485 83.5316 -12.4444 216.726 8.97423 77.844 -29.5094 40.328 5.91268 87.7007 -39.3661 -703.285 -465.831 -362.91 -246.17 -118.062 187.42 391.91 275.171 459.531 733.463 -409.112 -149.49 -67.5796 126.786 438.112 178.491 144.587 92.9316 -128.046 3.49255 -115.586 26.7304 25.853 3.14781 18.5785 2.08148 44.0328 -15.0321 17.5583 4.52748 -23.7512 52.752 56.6375 -29.9716 -80.0538 96.1653 29.9193 -73.9503 -207.83 223.941 71.1375 -47.2461 -341.578 357.689 116.872 -93.1735 -273.006 289.117 162.397 -147.022 -461.063 477.175 164.857 1797.89 8356.45 -3655.72 8254.36 11886 1368.9 10529.5 -1167.83 4822.09 11882.8 11895.6 7736.29 222.683 3264.03 3264.03 11942 -3900.91 11564 11564 1874.37 5776.95 10211 10143.8 13512.4 13603.3 10211 10143.8 5680.08 1426.73 1117.53 13671.8 10348.5 6191.82 1117.53 13671.8 9727.48 4902.08 2144.83 13053 9727.48 2552.35 819.847 819.847 -789.375 -2424.93 14597.7 14597.7 14615.9 14653.6 14738 14738 15292.1 15248.6 15217.3 15217.3 15055.7 11520.4 11579.1 11579.1 11511 11453.8 6732.93 6732.93 6602.6 6511.39 6366.26 6366.26 1330.75 1867.5 2372.26 2372.26 2916.63 61628.4 192082 61090.9 200596 236094 92333.7 225480 58188.8 155727 236249 235640 197608 58334.4 64906.7 64906.7 235047 65380.4 234545 234545 99058 174914 228857 226650 260267 260680 228857 226650 174110 99670.1 102941 259941 227906 173795 102941 259941 224654 169872 100437 257552 224654 64088.5 61012.2 61012.2 62188.1 63572 269997 269997 269938 270169 270672 270672 281982 281845 281781 281781 280585 246627 246637 246637 245450 244174 187165 187165 186430 185520 184463 184463 106885 105884 104621 104621 104808 </DataArray>
<DataArray Name="Uz 2" NumberOfComponents="1" format="ascii" type="Float32">105.612 -28.8006 -602.131 -205.316 15.5619 -300.986 71.9894 -24.1673 378.497 64.6032 657.865 72.4464 39.9998 42.2385 -24.3979 72.7325 42.4219 45.3056 -722.714 -723.139 -430.53 -313.741 -206.223 -84.6162 147.062 342.742 536.956 432.897 732.286 -322.914 -122.257 -39.6379 96.5803 351.914 450.945 48.771 57.0286 -63.9308 -421.945 -19.7702 2.27036 18.3608 2.54577 26.455 26.9193 24.9591 5.3211 23.6797 24.4733 1.944 -137.817 153.929 46.0831 -21.4933 -58.188 74.2995 90.0618 -64.0054 -181.231 197.343 63.3576 -108.921 -315.586 331.697 109.285 -86.2247 -464.061 480.172 163.134 -147.515 -468.822 484.934 8185.19 1797.89 504.618 11077.4 11903.7 3712.04 1672.29 -2562.17 8254.36 11886 1368.9 10529.5 -1167.83 3288.01 11982.9 11982.9 -3900.91 11526 968.547 2331.24 5680.08 10233.8 13665.7 13390.3 13512.4 10233.8 5872.69 5519.31 1874.37 6226.04 1145.84 13633.8 10348.5 6226.04 2163.49 13094.1 9682.01 4902.08 2163.49 13094.1 2552.35 842.136 -820.587 -820.587 -2424.93 14548 14668.6 14668.6 14653.6 14685.9 15339.1 15339.1 15248.6 15172.7 15099.2 15099.2 11520.4 11548.5 11554.4 11554.4 11453.8 6697.35 6633.96 6633.96 6511.39 6344.42 1330.27 1330.27 1867.5 2371.08 2906 2906 191387 61628.4 94817.5 227171 235886 152495 59724 59289.7 200596 236094 92333.7 225480 58188.8 66085.2 235391 235391 65380.4 234213 100592 98745.8 174110 228543 260825 259583 260267 228543 175207 172801 99058 174162 103413 259590 227906 174162 99950.4 257894 224338 169872 99950.4 257894 64088.5 62363.1 60835.4 60835.4 63572 269566 270357 270357 270169 270240 282380 282380 281845 281381 280981 280981 246627 246258 245825 245825 244174 186773 186832 186832 185520 184053 106327 106327 105884 105198 104253 104253 </DataArray>
</PointData>
<CellData/>
</Piece>
</UnstructuredGrid>
</VTKFile>
