<?xml version="1.0" ?>
<VTKFile byte_order="LittleEndian" type="UnstructuredGrid" version="0.1">
<UnstructuredGrid>
<Piece NumberOfCells="125" NumberOfPoints="216">
<Points>
<DataArray Name="vertices" NumberOfComponents="3" format="ascii" type="Float32">0.00126971 3.30421 9.85826 0 0 0 -9.99735e-05 5.07446 8.92956 0 2 0 1.99873 3.30421 9.85826 2 0 0 2.0001 5.07446 8.92956 2 2 0 0.0337168 0.200829 2.15684 0.0210127 0.718432 4.23981 0.0147042 1.47104 6.20506 0.00746597 2.35725 8.06717 0.00126809 3.65563 9.6714 0.000746771 4.00916 9.48687 0.000243808 4.36401 9.30264 -0.000226778 4.71947 9.11732 -0.0349643 2.17449 1.83615 -0.0222301 2.62639 3.64449 -0.0142032 3.31073 5.42185 -0.00692244 4.14752 7.17724 0 0.4 0 0 0.8 0 0 1.2 0 0 1.6 0 1.96628 0.200829 2.15684 1.97899 0.718432 4.23981 1.9853 1.47104 6.20506 1.99253 2.35725 8.06717 1.99873 3.65563 9.6714 1.99925 4.00916 9.48687 1.99976 4.36401 9.30264 2.00023 4.71947 9.11732 2.03496 2.17449 1.83615 2.02223 2.62639 3.64449 2.0142 3.31073 5.42185 2.00692 4.14752 7.17724 2 0.4 0 2 0.8 0 2 1.2 0 2 1.6 0 0.4 0 0 0.8 0 0 1.2 0 0 1.6 0 0 0.400661 3.30304 9.85868 0.800214 3.30269 9.85864 1.19979 3.30269 9.85864 1.59934 3.30304 9.85868 0.4 2 0 0.8 2 0 1.2 2 0 1.6 2 0 0.400041 5.07302 8.92927 0.800017 5.07279 8.92927 1.19998 5.07279 8.92927 1.59996 5.07302 8.92927 0.0192891 0.584557 2.09091 0.00552894 0.973891 2.02902 -0.00794306 1.36857 1.96787 -0.0211362 1.76866 1.90451 0.0126147 1.09393 4.12147 0.00420295 1.47252 4.00412 -0.00432214 1.85435 3.88654 -0.0129923 2.23917 3.76722 0.00869468 1.83413 6.04854 0.00299484 2.20032 5.89364 -0.00262474 2.56884 5.73858 -0.00824966 2.93915 5.58193 0.00449449 2.7129 7.88841 0.00172935 3.07056 7.71163 -0.00104325 3.42944 7.53527 -0.0038432 3.78873 7.35775 1.99551 2.7129 7.88841 1.99827 3.07056 7.71163 2.00104 3.42944 7.53527 2.00384 3.78873 7.35775 1.99131 1.83413 6.04854 1.99701 2.20032 5.89364 2.00262 2.56884 5.73858 2.00825 2.93915 5.58193 1.98739 1.09393 4.12147 1.9958 1.47252 4.00412 2.00432 1.85435 3.88654 2.01299 2.23917 3.76722 1.98071 0.584557 2.09091 1.99447 0.973891 2.02902 2.00794 1.36857 1.96787 2.02114 1.76866 1.90451 0.419602 0.21148 2.15361 0.412718 0.725151 4.23893 0.408664 1.47541 6.20371 0.404463 2.35994 8.06663 0.806405 0.21644 2.15271 0.804258 0.728382 4.2379 0.802867 1.47752 6.20302 0.801481 2.36104 8.06612 1.1936 0.21644 2.15271 1.19574 0.728382 4.2379 1.19713 1.47752 6.20302 1.19852 2.36104 8.06612 1.5804 0.21148 2.15361 1.58728 0.725151 4.23893 1.59134 1.47541 6.20371 1.59554 2.35994 8.06663 1.62056 2.18536 1.83638 1.61365 2.63321 3.64044 1.60841 3.31458 5.41937 1.60419 4.14966 7.17543 1.20678 2.1905 1.83554 1.20459 2.63676 3.63929 1.2028 3.3166 5.41819 1.20139 4.15069 7.17481 0.793222 2.1905 1.83554 0.79541 2.63676 3.63929 0.7972 3.3166 5.41819 0.798607 4.15069 7.17481 0.379441 2.18536 1.83638 0.386351 2.63321 3.64044 0.391592 3.31458 5.41937 0.39581 4.14966 7.17543 0.4 0.4 0 0.8 0.4 0 1.2 0.4 0 1.6 0.4 0 0.4 0.8 0 0.8 0.8 0 1.2 0.8 0 1.6 0.8 0 0.4 1.2 0 0.8 1.2 0 1.2 1.2 0 1.6 1.2 0 0.4 1.6 0 0.8 1.6 0 1.2 1.6 0 1.6 1.6 0 0.399844 4.71846 9.11699 0.799961 4.71808 9.11684 1.20004 4.71808 9.11684 1.60016 4.71846 9.11699 0.400123 4.36336 9.30246 0.800038 4.36307 9.30238 1.19996 4.36307 9.30238 1.59988 4.36336 9.30246 0.400497 4.00865 9.48697 0.800176 4.00842 9.48703 1.19982 4.00842 9.48703 1.5995 4.00865 9.48697 0.400819 3.65504 9.67187 0.800266 3.65475 9.67201 1.19973 3.65475 9.67201 1.59918 3.65504 9.67187 0.402678 2.71542 7.88782 0.800893 2.7166 7.88742 1.19911 2.7166 7.88742 1.59732 2.71542 7.88782 0.40101 3.07284 7.71071 0.800333 3.07397 7.71022 1.19967 3.07397 7.71022 1.59899 3.07284 7.71071 0.399357 3.43155 7.53398 0.799782 3.4326 7.53334 1.20022 3.4326 7.53334 1.60064 3.43155 7.53398 0.397657 3.79074 7.35604 0.79921 3.79175 7.3553 1.20079 3.79175 7.3553 1.60234 3.79074 7.35604 0.405179 1.8385 6.04711 0.801724 1.84062 6.04643 1.19828 1.84062 6.04643 1.59482 1.8385 6.04711 0.401768 2.20453 5.89193 0.800591 2.20664 5.89108 1.19941 2.20664 5.89108 1.59823 2.20453 5.89193 0.398438 2.57287 5.73654 0.799476 2.5749 5.73546 1.20052 2.5749 5.73546 1.60156 2.57287 5.73654 0.395068 2.94305 5.57955 0.798354 2.945 5.57833 1.20165 2.945 5.57833 1.60493 2.94305 5.57955 0.407641 1.10069 4.12041 0.802557 1.1041 4.11958 1.19744 1.1041 4.11958 1.59236 1.10069 4.12041 0.402494 1.47916 4.00223 0.800826 1.48259 4.00124 1.19917 1.48259 4.00124 1.59751 1.47916 4.00223 0.397282 1.86091 3.88374 0.79907 1.86436 3.88248 1.20093 1.86436 3.88248 1.60272 1.86091 3.88374 0.391933 2.24575 3.76345 0.797264 2.24922 3.76202 1.20274 2.24922 3.76202 1.60807 2.24575 3.76345 0.411277 0.595043 2.08789 0.803715 0.599828 2.08677 1.19628 0.599828 2.08677 1.58872 0.595043 2.08789 0.403087 0.984218 2.02693 0.801007 0.989026 2.02601 1.19899 0.989026 2.02601 1.59691 0.984218 2.02693 0.395147 1.37883 1.96683 0.798375 1.38369 1.96623 1.20163 1.38369 1.96623 1.60485 1.37883 1.96683 0.387326 1.7791 1.90457 0.795794 1.78406 1.90416 1.20421 1.78406 1.90416 1.61267 1.7791 1.90457 </DataArray>
</Points>
<Cells>
<DataArray Name="connectivity" format="ascii" type="Int32">0 12 68 11 44 148 152 91 44 148 152 91 45 149 153 95 45 149 153 95 46 150 154 99 46 150 154 99 47 151 155 103 47 151 155 103 4 28 72 27 12 13 69 68 148 144 156 152 148 144 156 152 149 145 157 153 149 145 157 153 150 146 158 154 150 146 158 154 151 147 159 155 151 147 159 155 28 29 73 72 13 14 70 69 144 140 160 156 144 140 160 156 145 141 161 157 145 141 161 157 146 142 162 158 146 142 162 158 147 143 163 159 147 143 163 159 29 30 74 73 14 15 71 70 140 136 164 160 140 136 164 160 141 137 165 161 141 137 165 161 142 138 166 162 142 138 166 162 143 139 167 163 143 139 167 163 30 31 75 74 15 2 19 71 136 52 119 164 136 52 119 164 137 53 115 165 137 53 115 165 138 54 111 166 138 54 111 166 139 55 107 167 139 55 107 167 31 6 35 75 11 68 64 10 91 152 168 90 91 152 168 90 95 153 169 94 95 153 169 94 99 154 170 98 99 154 170 98 103 155 171 102 103 155 171 102 27 72 76 26 68 69 65 64 152 156 172 168 152 156 172 168 153 157 173 169 153 157 173 169 154 158 174 170 154 158 174 170 155 159 175 171 155 159 175 171 72 73 77 76 69 70 66 65 156 160 176 172 156 160 176 172 157 161 177 173 157 161 177 173 158 162 178 174 158 162 178 174 159 163 179 175 159 163 179 175 73 74 78 77 70 71 67 66 160 164 180 176 160 164 180 176 161 165 181 177 161 165 181 177 162 166 182 178 162 166 182 178 163 167 183 179 163 167 183 179 74 75 79 78 71 19 18 67 164 119 118 180 164 119 118 180 165 115 114 181 165 115 114 181 166 111 110 182 166 111 110 182 167 107 106 183 167 107 106 183 75 35 34 79 10 64 60 9 90 168 184 89 90 168 184 89 94 169 185 93 94 169 185 93 98 170 186 97 98 170 186 97 102 171 187 101 102 171 187 101 26 76 80 25 64 65 61 60 168 172 188 184 168 172 188 184 169 173 189 185 169 173 189 185 170 174 190 186 170 174 190 186 171 175 191 187 171 175 191 187 76 77 81 80 65 66 62 61 172 176 192 188 172 176 192 188 173 177 193 189 173 177 193 189 174 178 194 190 174 178 194 190 175 179 195 191 175 179 195 191 77 78 82 81 66 67 63 62 176 180 196 192 176 180 196 192 177 181 197 193 177 181 197 193 178 182 198 194 178 182 198 194 179 183 199 195 179 183 199 195 78 79 83 82 67 18 17 63 180 118 117 196 180 118 117 196 181 114 113 197 181 114 113 197 182 110 109 198 182 110 109 198 183 106 105 199 183 106 105 199 79 34 33 83 9 60 56 8 89 184 200 88 89 184 200 88 93 185 201 92 93 185 201 92 97 186 202 96 97 186 202 96 101 187 203 100 101 187 203 100 25 80 84 24 60 61 57 56 184 188 204 200 184 188 204 200 185 189 205 201 185 189 205 201 186 190 206 202 186 190 206 202 187 191 207 203 187 191 207 203 80 81 85 84 61 62 58 57 188 192 208 204 188 192 208 204 189 193 209 205 189 193 209 205 190 194 210 206 190 194 210 206 191 195 211 207 191 195 211 207 81 82 86 85 62 63 59 58 192 196 212 208 192 196 212 208 193 197 213 209 193 197 213 209 194 198 214 210 194 198 214 210 195 199 215 211 195 199 215 211 82 83 87 86 63 17 16 59 196 117 116 212 196 117 116 212 197 113 112 213 197 113 112 213 198 109 108 214 198 109 108 214 199 105 104 215 199 105 104 215 83 33 32 87 8 56 20 1 88 200 120 40 88 200 120 40 92 201 121 41 92 201 121 41 96 202 122 42 96 202 122 42 100 203 123 43 100 203 123 43 24 84 36 5 56 57 21 20 200 204 124 120 200 204 124 120 201 205 125 121 201 205 125 121 202 206 126 122 202 206 126 122 203 207 127 123 203 207 127 123 84 85 37 36 57 58 22 21 204 208 128 124 204 208 128 124 205 209 129 125 205 209 129 125 206 210 130 126 206 210 130 126 207 211 131 127 207 211 131 127 85 86 38 37 58 59 23 22 208 212 132 128 208 212 132 128 209 213 133 129 209 213 133 129 210 214 134 130 210 214 134 130 211 215 135 131 211 215 135 131 86 87 39 38 59 16 3 23 212 116 48 132 212 116 48 132 213 112 49 133 213 112 49 133 214 108 50 134 214 108 50 134 215 104 51 135 215 104 51 135 87 32 7 39 </DataArray>
<DataArray Name="offsets" format="ascii" type="Int32">8 16 24 32 40 48 56 64 72 80 88 96 104 112 120 128 136 144 152 160 168 176 184 192 200 208 216 224 232 240 248 256 264 272 280 288 296 304 312 320 328 336 344 352 360 368 376 384 392 400 408 416 424 432 440 448 456 464 472 480 488 496 504 512 520 528 536 544 552 560 568 576 584 592 600 608 616 624 632 640 648 656 664 672 680 688 696 704 712 720 728 736 744 752 760 768 776 784 792 800 808 816 824 832 840 848 856 864 872 880 888 896 904 912 920 928 936 944 952 960 968 976 984 992 1000 </DataArray>
<DataArray Name="types" format="ascii" type="UInt8">12 12 12 12 12 12 12 12 12 12 12 12 12 12 12 12 12 12 12 12 12 12 12 12 12 12 12 12 12 12 12 12 12 12 12 12 12 12 12 12 12 12 12 12 12 12 12 12 12 12 12 12 12 12 12 12 12 12 12 12 12 12 12 12 12 12 12 12 12 12 12 12 12 12 12 12 12 12 12 12 12 12 12 12 12 12 12 12 12 12 12 12 12 12 12 12 12 12 12 12 12 12 12 12 12 12 12 12 12 12 12 12 12 12 12 12 12 12 12 12 12 12 12 12 12 </DataArray>
</Cells>
<PointData>
<DataArray Name="Uz 0" NumberOfComponents="1" format="ascii" type="Float32">-0.797183 -0.314467 -0.784764 -0.698144 -0.955809 -0.945902 -0.805044 -0.315183 -0.467268 -0.933596 -0.949065 -0.645137 -0.324071 -0.31082 -0.35064 -0.954908 -0.324739 -0.324739 -0.93868 -0.477938 -0.765954 -0.728397 -0.929921 -1.04644 -1.05255 -1.03262 -0.929921 -0.755038 -0.487529 -0.463442 -0.958373 -0.771006 -0.503754 -1.05416 -0.958373 -0.708541 -0.463275 -1.02082 -0.900254 -0.708541 -0.337207 -0.337207 -0.33119 -0.325858 -0.321265 -0.321265 -1.06852 -1.07262 -1.07791 -1.07791 -1.08021 -1.13088 -1.12556 -1.12556 -1.11695 -1.10882 -1.01972 -1.01972 -1.00726 -0.994902 -0.982484 -0.982484 -0.811622 -0.799508 -0.787155 -0.787155 -0.769594 -0.512924 -0.500233 -0.500233 -0.493231 -0.485976 -0.999708 -1 -1.00036 -1.00224 -0.999801 -0.999665 -1.00128 -1 -0.99645 -0.999106 -1.00022 -0.997726 -1 -1 -1 -0.999941 -1 -1 -1.00004 -1.00413 -1.0027 -1.00263 -1.00161 -1.00091 -0.998993 -0.999194 -0.998386 -0.997346 -0.995806 -0.995822 -1.0013 -1.00065 -0.999008 -0.999779 -0.998703 -0.997926 -0.998971 -0.999793 -1.0004 -1.00207 -1 -1 -1 -1 -1 -1 -1.00008 -0.999942 -0.999852 -1.00015 -1.00006 -1.00026 -1.00076 -0.999243 -0.999767 -1.00022 -1.00144 -0.998556 -0.999532 -1.00045 -1.0013 -0.9987 -0.999242 -1.00076 -1.00222 -0.997776 -0.999231 -1.00106 -1.00336 -0.996637 -0.99892 -1.0011 0.469586 0.5 0.471833 0.47973 0.460315 0.462742 0.476729 0.5 0.485903 0.46295 0.462599 0.488671 0.5 0.5 0.5 0.460053 0.5 0.5 0.462252 0.492426 0.477259 0.486773 0.469823 0.458452 0.456536 0.458699 0.469005 0.479829 0.485928 0.502972 0.463294 0.475819 0.483297 0.455508 0.462885 0.486935 0.506364 0.458885 0.471715 0.487975 0.5 0.5 0.5 0.5 0.5 0.5 0.454842 0.45484 0.454146 0.454177 0.452878 0.451671 0.453563 0.453249 0.454251 0.454579 0.460857 0.460388 0.463393 0.465875 0.468019 0.467219 0.47447 0.478032 0.481892 0.480991 0.484507 0.484894 0.491329 0.49066 0.497172 0.50383 </DataArray>
<DataArray Name="Uz 1" NumberOfComponents="1" format="ascii" type="Float32">-0.330928 -0.797183 -0.314467 -0.852109 -0.952393 -0.433669 -0.905615 -0.31075 -0.698144 -0.955809 -0.945902 -0.805044 -0.315183 -0.346507 -0.346507 -0.954908 -0.329027 -0.939752 -0.939752 -0.469957 -0.755038 -0.950944 -0.917605 -1.03983 -1.04644 -0.950944 -0.917605 -0.742617 -0.477938 -0.502009 -1.05538 -0.95734 -0.771006 -0.502009 -1.05538 -0.901529 -0.707034 -0.463275 -1.02082 -0.901529 -0.341992 -0.326382 -0.326382 -0.325858 -0.32622 -1.0699 -1.0699 -1.07262 -1.07655 -1.08168 -1.08168 -1.13088 -1.12426 -1.11823 -1.11823 -1.10882 -1.01849 -1.00854 -1.00854 -0.994902 -0.981117 -0.813117 -0.813117 -0.799508 -0.785611 -0.771202 -0.771202 -0.512924 -0.502188 -0.491301 -0.491301 -0.485976 -1 -1.00029 -1 -1.00146 -0.999832 -1.00362 -1.00071 -1 -0.99776 -1.0002 -1.00033 -0.998716 -1 -1 -1 -1.00006 -1 -0.999722 -1.00028 -1.0041 -1.00265 -1.00175 -1.00156 -1.00084 -0.999088 -0.99825 -0.998441 -0.997374 -0.995869 -1.00312 -1.00076 -1.00042 -0.999354 -0.996878 -0.999243 -0.998827 -0.999291 -1.00103 -1.00021 -1.00117 -1 -1 -1 -1 -1 -0.999724 -1.00028 -1.00006 -0.999954 -0.999823 -1.00018 -0.999737 -1.00025 -1.0007 -0.999297 -0.999776 -1.00047 -1.0014 -0.998596 -0.999549 -1.00043 -1.00226 -0.997741 -0.999237 -1.00076 -1.00223 -0.997768 -0.998937 -1.00107 -1.00336 -0.99664 -0.998899 0.5 0.469691 0.5 0.469467 0.461807 0.504823 0.465964 0.5 0.47944 0.460473 0.46263 0.475903 0.5 0.5 0.5 0.460046 0.5 0.462158 0.462109 0.497591 0.480585 0.464929 0.471424 0.45934 0.458084 0.464358 0.470471 0.482764 0.49159 0.483976 0.455586 0.463173 0.475612 0.483149 0.455377 0.47117 0.487424 0.506532 0.459008 0.471901 0.5 0.5 0.5 0.5 0.5 0.454879 0.454782 0.454824 0.454156 0.452743 0.452865 0.451582 0.453387 0.454602 0.454172 0.454416 0.460698 0.463822 0.463254 0.465637 0.467745 0.47466 0.474239 0.47781 0.481597 0.485186 0.48403 0.484646 0.491139 0.49734 0.496974 0.503738 </DataArray>
<DataArray Name="Uz 2" NumberOfComponents="1" format="ascii" type="Float32">-0.784764 -0.330928 -0.467268 -0.933596 -0.949065 -0.645137 -0.324071 -0.31082 -0.852109 -0.952393 -0.433669 -0.905615 -0.31075 -0.35064 -0.956108 -0.956108 -0.329027 -0.93868 -0.487529 -0.463442 -0.742617 -0.940939 -1.05255 -1.03262 -1.03983 -0.940939 -0.765954 -0.728397 -0.469957 -0.772455 -0.503754 -1.05416 -0.95734 -0.772455 -0.461588 -1.02194 -0.900254 -0.707034 -0.461588 -1.02194 -0.341992 -0.33119 -0.320997 -0.320997 -0.32622 -1.06852 -1.07396 -1.07396 -1.07655 -1.08021 -1.13221 -1.13221 -1.12426 -1.11695 -1.1101 -1.1101 -1.01849 -1.00726 -0.996232 -0.996232 -0.981117 -0.811622 -0.801002 -0.801002 -0.785611 -0.769594 -0.510966 -0.510966 -0.502188 -0.493231 -0.484058 -0.484058 -0.999641 -1 -1.00355 -1.00089 -0.999783 -1.00227 -1 -1 -0.998541 -1.00017 -0.996377 -0.999287 -1 -1 -0.999746 -1.00025 -1 -0.999961 -1.00419 -1.00418 -1.00263 -1.00168 -1.00101 -1.00081 -0.999155 -0.998316 -0.997298 -0.997367 -0.995896 -1.00199 -1.00099 -1.00022 -0.999579 -0.99801 -0.996797 -0.999365 -0.999597 -1.00071 -1.0032 -1.00063 -1 -1 -1 -1 -1 -0.999925 -0.999812 -1.00019 -1.00005 -0.999942 -1.00082 -0.999178 -0.99975 -1.00023 -1.00067 -0.999328 -0.999529 -1.00047 -1.00135 -0.998652 -0.999566 -1.00076 -1.00224 -0.997762 -0.999235 -1.00077 -1.00339 -0.996606 -0.998932 -1.00108 -1.00342 -0.996578 0.471907 0.5 0.486977 0.463129 0.462658 0.490023 0.5 0.5 0.469017 0.46184 0.5049 0.46536 0.5 0.5 0.459963 0.460027 0.5 0.462252 0.487135 0.502947 0.483883 0.467696 0.456774 0.459383 0.458821 0.467013 0.476833 0.485265 0.497174 0.475729 0.483479 0.45561 0.463035 0.475346 0.506197 0.458675 0.471479 0.487654 0.506318 0.459161 0.5 0.5 0.5 0.5 0.5 0.454871 0.45493 0.454879 0.454167 0.452851 0.451726 0.451504 0.453278 0.454392 0.454777 0.454234 0.460547 0.463582 0.466189 0.465496 0.467474 0.474654 0.478224 0.477582 0.481317 0.484825 0.485314 0.484395 0.490935 0.497306 0.503664 0.503587 </DataArray>
</PointData>
<CellData/>
</Piece>
</UnstructuredGrid>
</VTKFile>
