<?xml version="1.0" ?>
<VTKFile byte_order="LittleEndian" type="UnstructuredGrid" version="0.1">
<UnstructuredGrid>
<Piece NumberOfCells="125" NumberOfPoints="216">
<Points>
<DataArray Name="vertices" NumberOfComponents="3" format="ascii" type="Float32">0.000468025 1.56483 10.0902 0 0 0 -0.000193819 3.5121 9.63489 0 2 0 1.99953 1.56483 10.0902 2 0 0 2.00019 3.5121 9.63489 2 2 0 0.0160689 0.0901151 2.07462 0.0102137 0.326472 4.12936 0.00703113 0.679149 6.1478 0.00356424 1.10374 8.13215 0.000486419 1.95321 9.99836 0.000239722 2.34227 9.90784 -4.68706e-06 2.73192 9.8176 -0.000240021 3.12198 9.72689 -0.0163342 2.0843 1.92392 -0.0104824 2.30587 3.84524 -0.0069133 2.64281 5.76898 -0.00343048 3.05577 7.69756 0 0.4 0 0 0.8 0 0 1.2 0 0 1.6 0 1.98393 0.0901151 2.07462 1.98979 0.326472 4.12936 1.99297 0.679149 6.1478 1.99644 1.10374 8.13215 1.99951 1.95321 9.99836 1.99976 2.34227 9.90784 2 2.73192 9.8176 2.00024 3.12198 9.72689 2.01633 2.0843 1.92392 2.01048 2.30587 3.84524 2.00691 2.64281 5.76898 2.00343 3.05577 7.69756 2 0.4 0 2 0.8 0 2 1.2 0 2 1.6 0 0.4 0 0 0.8 0 0 1.2 0 0 1.6 0 0 0.400231 1.56427 10.0904 0.800074 1.56413 10.0903 1.19993 1.56413 10.0903 1.59977 1.56427 10.0904 0.4 2 0 0.8 2 0 1.2 2 0 1.6 2 0 0.399932 3.51148 9.63471 0.799979 3.51136 9.63473 1.20002 3.51136 9.63473 1.60007 3.51148 9.63471 0.00932967 0.483748 2.0434 0.00291361 0.880025 2.0141 -0.0034342 1.27885 1.98531 -0.00972552 1.68023 1.95568 0.00609134 0.719356 4.07236 0.00203074 1.11371 4.0161 -0.00205287 1.50964 3.95995 -0.00617078 1.90709 3.90324 0.00413905 1.06956 6.07163 0.00139973 1.46131 5.9965 -0.00131022 1.85417 5.92152 -0.00403279 2.24803 5.84598 0.00210487 1.4931 8.04456 0.000756156 1.88319 7.95818 -0.000591092 2.27379 7.87213 -0.00194699 2.66472 7.78556 1.9979 1.4931 8.04456 1.99924 1.88319 7.95818 2.00059 2.27379 7.87213 2.00195 2.66472 7.78556 1.99586 1.06956 6.07163 1.9986 1.46131 5.9965 2.00131 1.85417 5.92152 2.00403 2.24803 5.84598 1.99391 0.719356 4.07236 1.99797 1.11371 4.0161 2.00205 1.50964 3.95995 2.00617 1.90709 3.90324 1.99067 0.483748 2.0434 1.99709 0.880025 2.0141 2.00343 1.27885 1.98531 2.00973 1.68023 1.95568 0.409373 0.0952161 2.07347 0.406199 0.329833 4.12951 0.404147 0.681353 6.14764 0.402136 1.10508 8.1322 0.80307 0.0976118 2.07325 0.802077 0.331474 4.12927 0.801374 0.68243 6.14754 0.800709 1.10566 8.13209 1.19693 0.0976118 2.07325 1.19792 0.331474 4.12927 1.19863 0.68243 6.14754 1.19929 1.10566 8.13209 1.59063 0.0952161 2.07347 1.5938 0.329833 4.12951 1.59585 0.681353 6.14764 1.59786 1.10508 8.1322 1.60958 2.08946 1.92441 1.60641 2.30927 3.84396 1.60409 2.6449 5.76824 1.60207 3.05698 7.69696 1.20315 2.0919 1.92424 1.20215 2.31098 3.84371 1.20136 2.64595 5.76791 1.20069 3.05755 7.69679 0.796849 2.0919 1.92424 0.797849 2.31098 3.84371 0.798642 2.64595 5.76791 0.799313 3.05755 7.69679 0.390421 2.08946 1.92441 0.393594 2.30927 3.84396 0.395913 2.6449 5.76824 0.397932 3.05698 7.69696 0.4 0.4 0 0.8 0.4 0 1.2 0.4 0 1.6 0.4 0 0.4 0.8 0 0.8 0.8 0 1.2 0.8 0 1.6 0.8 0 0.4 1.2 0 0.8 1.2 0 1.2 1.2 0 1.6 1.2 0 0.4 1.6 0 0.8 1.6 0 1.2 1.6 0 1.6 1.6 0 0.399841 3.12156 9.72669 0.799952 3.1214 9.72662 1.20005 3.1214 9.72662 1.60016 3.12156 9.72669 0.399982 2.73165 9.81751 0.799992 2.73153 9.81747 1.20001 2.73153 9.81747 1.60002 2.73165 9.81751 0.400164 2.34204 9.9079 0.800059 2.34193 9.90793 1.19994 2.34193 9.90793 1.59984 2.34204 9.9079 0.400315 1.95289 9.99859 0.800101 1.95275 9.99866 1.1999 1.95275 9.99866 1.59969 1.95289 9.99859 0.401261 1.49437 8.04458 0.800421 1.49497 8.04453 1.19958 1.49497 8.04453 1.59874 1.49437 8.04458 0.400446 1.88437 7.95801 0.800148 1.88496 7.95792 1.19985 1.88496 7.95792 1.59955 1.88437 7.95801 0.399643 2.27493 7.87176 0.79988 2.2755 7.87159 1.20012 2.2755 7.87159 1.60036 2.27493 7.87176 0.398821 2.66586 7.785 0.799604 2.66642 7.78478 1.2004 2.66642 7.78478 1.60118 2.66586 7.785 0.402468 1.07177 6.07143 0.800822 1.07285 6.07134 1.19918 1.07285 6.07134 1.59753 1.07177 6.07143 0.400828 1.46347 5.99615 0.800277 1.46455 5.99598 1.19972 1.46455 5.99598 1.59917 1.46347 5.99615 0.399222 1.85629 5.92099 0.799739 1.85736 5.92071 1.20026 1.85736 5.92071 1.60078 1.85629 5.92099 0.39759 2.25013 5.84529 0.799196 2.25117 5.84494 1.2008 2.25117 5.84494 1.60241 2.25013 5.84529 0.403711 0.7227 4.07243 0.801246 0.724397 4.07231 1.19875 0.724397 4.07231 1.59629 0.7227 4.07243 0.401223 1.11701 4.01577 0.800409 1.11871 4.01558 1.19959 1.11871 4.01558 1.59878 1.11701 4.01577 0.398729 1.51292 3.95921 0.799569 1.51463 3.9589 1.20043 1.51463 3.9589 1.60127 1.51292 3.95921 0.396196 1.9104 3.90207 0.798715 1.91211 3.90168 1.20129 1.91211 3.90168 1.6038 1.9104 3.90207 0.405495 0.488734 2.04235 0.801814 0.49104 2.042 1.19819 0.49104 2.042 1.5945 0.488734 2.04235 0.401679 0.88493 2.01351 0.800553 0.887231 2.01327 1.19945 0.887231 2.01327 1.59832 0.88493 2.01351 0.397938 1.28374 1.9852 0.799313 1.28605 1.98511 1.20069 1.28605 1.98511 1.60206 1.28374 1.9852 0.394203 1.68521 1.95608 0.798079 1.68755 1.95608 1.20192 1.68755 1.95608 1.6058 1.68521 1.95608 </DataArray>
</Points>
<Cells>
<DataArray Name="connectivity" format="ascii" type="Int32">0 12 68 11 44 148 152 91 44 148 152 91 45 149 153 95 45 149 153 95 46 150 154 99 46 150 154 99 47 151 155 103 47 151 155 103 4 28 72 27 12 13 69 68 148 144 156 152 148 144 156 152 149 145 157 153 149 145 157 153 150 146 158 154 150 146 158 154 151 147 159 155 151 147 159 155 28 29 73 72 13 14 70 69 144 140 160 156 144 140 160 156 145 141 161 157 145 141 161 157 146 142 162 158 146 142 162 158 147 143 163 159 147 143 163 159 29 30 74 73 14 15 71 70 140 136 164 160 140 136 164 160 141 137 165 161 141 137 165 161 142 138 166 162 142 138 166 162 143 139 167 163 143 139 167 163 30 31 75 74 15 2 19 71 136 52 119 164 136 52 119 164 137 53 115 165 137 53 115 165 138 54 111 166 138 54 111 166 139 55 107 167 139 55 107 167 31 6 35 75 11 68 64 10 91 152 168 90 91 152 168 90 95 153 169 94 95 153 169 94 99 154 170 98 99 154 170 98 103 155 171 102 103 155 171 102 27 72 76 26 68 69 65 64 152 156 172 168 152 156 172 168 153 157 173 169 153 157 173 169 154 158 174 170 154 158 174 170 155 159 175 171 155 159 175 171 72 73 77 76 69 70 66 65 156 160 176 172 156 160 176 172 157 161 177 173 157 161 177 173 158 162 178 174 158 162 178 174 159 163 179 175 159 163 179 175 73 74 78 77 70 71 67 66 160 164 180 176 160 164 180 176 161 165 181 177 161 165 181 177 162 166 182 178 162 166 182 178 163 167 183 179 163 167 183 179 74 75 79 78 71 19 18 67 164 119 118 180 164 119 118 180 165 115 114 181 165 115 114 181 166 111 110 182 166 111 110 182 167 107 106 183 167 107 106 183 75 35 34 79 10 64 60 9 90 168 184 89 90 168 184 89 94 169 185 93 94 169 185 93 98 170 186 97 98 170 186 97 102 171 187 101 102 171 187 101 26 76 80 25 64 65 61 60 168 172 188 184 168 172 188 184 169 173 189 185 169 173 189 185 170 174 190 186 170 174 190 186 171 175 191 187 171 175 191 187 76 77 81 80 65 66 62 61 172 176 192 188 172 176 192 188 173 177 193 189 173 177 193 189 174 178 194 190 174 178 194 190 175 179 195 191 175 179 195 191 77 78 82 81 66 67 63 62 176 180 196 192 176 180 196 192 177 181 197 193 177 181 197 193 178 182 198 194 178 182 198 194 179 183 199 195 179 183 199 195 78 79 83 82 67 18 17 63 180 118 117 196 180 118 117 196 181 114 113 197 181 114 113 197 182 110 109 198 182 110 109 198 183 106 105 199 183 106 105 199 79 34 33 83 9 60 56 8 89 184 200 88 89 184 200 88 93 185 201 92 93 185 201 92 97 186 202 96 97 186 202 96 101 187 203 100 101 187 203 100 25 80 84 24 60 61 57 56 184 188 204 200 184 188 204 200 185 189 205 201 185 189 205 201 186 190 206 202 186 190 206 202 187 191 207 203 187 191 207 203 80 81 85 84 61 62 58 57 188 192 208 204 188 192 208 204 189 193 209 205 189 193 209 205 190 194 210 206 190 194 210 206 191 195 211 207 191 195 211 207 81 82 86 85 62 63 59 58 192 196 212 208 192 196 212 208 193 197 213 209 193 197 213 209 194 198 214 210 194 198 214 210 195 199 215 211 195 199 215 211 82 83 87 86 63 17 16 59 196 117 116 212 196 117 116 212 197 113 112 213 197 113 112 213 198 109 108 214 198 109 108 214 199 105 104 215 199 105 104 215 83 33 32 87 8 56 20 1 88 200 120 40 88 200 120 40 92 201 121 41 92 201 121 41 96 202 122 42 96 202 122 42 100 203 123 43 100 203 123 43 24 84 36 5 56 57 21 20 200 204 124 120 200 204 124 120 201 205 125 121 201 205 125 121 202 206 126 122 202 206 126 122 203 207 127 123 203 207 127 123 84 85 37 36 57 58 22 21 204 208 128 124 204 208 128 124 205 209 129 125 205 209 129 125 206 210 130 126 206 210 130 126 207 211 131 127 207 211 131 127 85 86 38 37 58 59 23 22 208 212 132 128 208 212 132 128 209 213 133 129 209 213 133 129 210 214 134 130 210 214 134 130 211 215 135 131 211 215 135 131 86 87 39 38 59 16 3 23 212 116 48 132 212 116 48 132 213 112 49 133 213 112 49 133 214 108 50 134 214 108 50 134 215 104 51 135 215 104 51 135 87 32 7 39 </DataArray>
<DataArray Name="offsets" format="ascii" type="Int32">8 16 24 32 40 48 56 64 72 80 88 96 104 112 120 128 136 144 152 160 168 176 184 192 200 208 216 224 232 240 248 256 264 272 280 288 296 304 312 320 328 336 344 352 360 368 376 384 392 400 408 416 424 432 440 448 456 464 472 480 488 496 504 512 520 528 536 544 552 560 568 576 584 592 600 608 616 624 632 640 648 656 664 672 680 688 696 704 712 720 728 736 744 752 760 768 776 784 792 800 808 816 824 832 840 848 856 864 872 880 888 896 904 912 920 928 936 944 952 960 968 976 984 992 1000 </DataArray>
<DataArray Name="types" format="ascii" type="UInt8">12 12 12 12 12 12 12 12 12 12 12 12 12 12 12 12 12 12 12 12 12 12 12 12 12 12 12 12 12 12 12 12 12 12 12 12 12 12 12 12 12 12 12 12 12 12 12 12 12 12 12 12 12 12 12 12 12 12 12 12 12 12 12 12 12 12 12 12 12 12 12 12 12 12 12 12 12 12 12 12 12 12 12 12 12 12 12 12 12 12 12 12 12 12 12 12 12 12 12 12 12 12 12 12 12 12 12 12 12 12 12 12 12 12 12 12 12 12 12 12 12 12 12 12 12 </DataArray>
</Cells>
<PointData>
<DataArray Name="Uz 0" NumberOfComponents="1" format="ascii" type="Float32">-449.593 -455.363 -485.566 -2289.75 -377.986 1083.3 590.658 604.234 2806.58 2285.9 222.268 784.291 -350.526 1147.06 105.278 112.939 -471.099 1235.8 83.8103 -2581.04 -2378.09 -761.575 -640.596 -644.694 1754.29 -103.352 1099.42 2259.99 3110.9 3114.84 -1389.4 -400.002 734.725 680.14 1848.22 530.461 823.772 21.4182 299.258 -71.6384 778.518 -319.695 174.313 160.891 -351.384 810.207 52.5882 261.859 1.47698 457.346 403.096 -206.978 -441.962 696.864 187.159 201.167 -1267.36 1522.26 451.219 -58.2975 -45.0398 299.942 705.647 -328.068 -873.406 1128.31 353.228 -462.49 -1694.01 1948.91 736.953 -500.075 145031 -6940.42 142142 83368.2 193524 191632 129369 7710.37 26712.3 180074 192360 72365.7 13825 -3108.23 21855.9 192410 -7238.53 -7238.53 188122 32462.2 98172.9 91881.6 162497 214329 215510 210659 162497 96532.8 31467.5 34400.7 166969 99283.9 32844.3 214566 166969 86545.5 32897.8 206079 154378 86545.5 17941 17941 11062.4 4530.11 -2053.05 -2053.05 227941 229105 230716 230716 230630 237557 237061 237061 234670 232391 183667 183667 181528 179231 176905 176905 107940 106129 104377 104377 101009 35244.3 36303.6 36303.6 37504.8 38802.6 736815 236518 726481 623741 903317 894257 743907 230267 386022 877271 897383 574431 237403 230659 263976 900327 248345 248345 887918 394352 694634 657919 872007 997122 1.00237e+06 983817 872007 684339 405143 376643 898221 697790 422848 1.00246e+06 898221 639517 376904 972029 843176 639517 250220 250220 246764 244047 242108 242108 1.0225e+06 1.02631e+06 1.03125e+06 1.03125e+06 1.03252e+06 1.08375e+06 1.07939e+06 1.07939e+06 1.07101e+06 1.06288e+06 963586 963586 951438 939257 926596 926596 741234 729546 717317 717317 699724 431320 417113 417113 408765 399264 </DataArray>
<DataArray Name="Uz 1" NumberOfComponents="1" format="ascii" type="Float32">1576.88 1596.65 1602.42 -1895.74 57.7806 -2153.24 1246.13 120.942 3054.46 1142.69 -318.591 174.047 160.471 1207.35 -442.647 651.767 93.9273 1278.34 -513.634 -2561.85 -1801.17 -1878.49 -84.6921 -28.2403 1103.52 2337.31 543.515 1711.73 3039.87 -1365.5 -1131.25 -308.976 858.825 1824.32 1590.07 35.2227 333.325 -364.949 437.405 423.6 415.457 392.325 66.4981 297.932 31.6935 743.259 -284.436 196.964 156.537 -289.006 747.83 461.879 -61.7899 -48.4836 303.385 53.7344 -336.739 -842.196 1097.1 313.199 73.8167 -1606.49 1861.39 582.97 -210.254 -541.539 796.441 717.391 -474.622 -1705.71 1960.61 754.977 14836.5 145031 -6940.42 139359 192956 26822.6 172763 2146.25 83368.2 193524 191632 129369 7710.37 21471.3 21471.3 192410 -6827.92 188683 188683 33419.9 96532.8 165961 159849 212725 214329 165961 159849 94521.1 32462.2 32697.2 215168 166542 99283.9 32697.2 215168 154900 86147.6 32897.8 206079 154900 18329.5 10665 10665 4530.11 -1575.65 228692 228692 229105 229990 231401 231401 237557 236371 235350 235350 232391 183143 182070 182070 179231 176338 108398 108398 106129 103926 101453 101453 35244.3 36405.6 37448.7 37448.7 38802.6 244870 736815 236518 788939 900480 347686 852022 228008 623741 903317 894257 743907 230267 259384 259384 900327 253020 889045 889045 384904 684339 892621 859357 990957 997122 892621 859357 672059 394352 421114 1.00378e+06 896930 697790 421114 1.00378e+06 844313 637943 376904 972029 844313 255523 241472 241472 244047 247502 1.02403e+06 1.02403e+06 1.02631e+06 1.02974e+06 1.03407e+06 1.03407e+06 1.08375e+06 1.07794e+06 1.07245e+06 1.07245e+06 1.06288e+06 962196 952875 952875 939257 925236 742687 742687 729546 715651 701456 701456 431320 419343 406518 406518 399264 </DataArray>
<DataArray Name="Uz 2" NumberOfComponents="1" format="ascii" type="Float32">1632.62 -429.818 -2041.87 -1521.2 542.437 -19.5857 1115.23 -382.353 2660.44 706.925 2917.95 -481.427 643.763 659.427 -428.411 1193.12 670.778 680.895 -2652.08 -2656.02 -1252.9 -1240.71 -1295.46 562.175 487.063 1699.54 2836.91 1220.4 3020.67 -1671.15 -275.902 -221.317 767.799 2129.97 2021.12 -391.015 159.565 125.498 -1562.29 849.838 43.3659 284.51 29.3445 429.479 427.13 406.235 328.483 130.34 302.286 55.7275 -874.211 1129.11 316.692 67.743 342.24 -87.3382 591.641 -196.317 -433.423 688.325 181.085 -450.745 -1231.65 1486.55 465.156 -98.3263 -1691.97 1946.88 729.523 -482.051 -1764.12 2019.02 142142 14836.5 26712.3 180074 192360 72365.7 13825 -3108.23 139359 192956 26822.6 172763 2146.25 21855.9 193031 193031 -6827.92 188122 31467.5 34400.7 94521.1 164544 215510 210659 212725 164544 98172.9 91881.6 33419.9 99712.4 32844.3 214566 166542 99712.4 32903.1 206665 154378 86147.6 32903.1 206665 18329.5 11062.4 4095.68 4095.68 -1575.65 227941 229854 229854 229990 230630 238247 238247 236371 234670 233062 233062 183143 181528 179818 179818 176338 107940 106586 106586 103926 101009 35183.4 35183.4 36405.6 37504.8 38697.8 38697.8 726481 244870 386022 877271 897383 574431 237403 230659 788939 900480 347686 852022 228008 263976 901629 901629 253020 887918 405143 376643 672059 883011 1.00237e+06 983817 990957 883011 694634 657919 384904 699162 422848 1.00246e+06 896930 699162 374954 973221 843176 637943 374954 973221 255523 246764 238727 238727 247502 1.0225e+06 1.0278e+06 1.0278e+06 1.02974e+06 1.03252e+06 1.0852e+06 1.0852e+06 1.07794e+06 1.07101e+06 1.06431e+06 1.06431e+06 962196 951438 940637 940637 925236 741234 731109 731109 715651 699724 429139 429139 419343 408765 397136 397136 </DataArray>
</PointData>
<CellData/>
</Piece>
</UnstructuredGrid>
</VTKFile>
