<?xml version="1.0" ?>
<VTKFile byte_order="LittleEndian" type="UnstructuredGrid" version="0.1">
<UnstructuredGrid>
<Piece NumberOfCells="125" NumberOfPoints="216">
<Points>
<DataArray Name="vertices" NumberOfComponents="3" format="ascii" type="Float32">0.000937507 2.6514 9.98697 0 0 0 -0.00017015 4.50235 9.23098 0 2 0 1.99906 2.6514 9.98697 2 0 0 2.00017 4.50235 9.23098 2 2 0 0.0270718 0.157407 2.12582 0.0170198 0.566401 4.20256 0.0118448 1.16775 6.19739 0.00601763 1.88255 8.11856 0.00094922 3.01958 9.83472 0.000530764 3.38925 9.68448 0.00012292 3.75998 9.53457 -0.000262953 4.13126 9.38381 -0.0278523 2.14063 1.86984 -0.0177946 2.50738 3.72392 -0.0115152 3.06435 5.56377 -0.00565212 3.7467 7.39542 0 0.4 0 0 0.8 0 0 1.2 0 0 1.6 0 1.97293 0.157407 2.12582 1.98298 0.566401 4.20256 1.98816 1.16775 6.19739 1.99398 1.88255 8.11856 1.99905 3.01958 9.83472 1.99947 3.38925 9.68448 1.99988 3.75998 9.53457 2.00026 4.13126 9.38381 2.02785 2.14063 1.86984 2.01779 2.50738 3.72392 2.01152 3.06435 5.56377 2.00565 3.7467 7.39542 2 0.4 0 2 0.8 0 2 1.2 0 2 1.6 0 0.4 0 0 0.8 0 0 1.2 0 0 1.6 0 0 0.40048 2.65046 9.9873 0.800155 2.65019 9.98726 1.19985 2.65019 9.98726 1.59952 2.65046 9.9873 0.4 2 0 0.8 2 0 1.2 2 0 1.6 2 0 0.399979 4.50123 9.23071 0.799996 4.50105 9.23072 1.2 4.50105 9.23072 1.60002 4.50123 9.23071 0.0155771 0.545245 2.07305 0.00462312 0.937561 2.0235 -0.00614387 1.33417 1.97465 -0.0167372 1.7351 1.92416 0.0101932 0.949626 4.10709 0.00339823 1.33534 4.01258 -0.00346799 1.72368 3.91802 -0.0104279 2.1145 3.82224 0.00699311 1.54315 6.07047 0.00239373 1.92096 5.94503 -0.00214675 2.30065 5.81961 -0.0066981 2.68189 5.69302 0.00359791 2.25349 7.97312 0.00135217 2.62592 7.82944 -0.000896083 2.99929 7.68618 -0.00316331 3.37308 7.54201 1.9964 2.25349 7.97312 1.99865 2.62592 7.82944 2.0009 2.99929 7.68618 2.00316 3.37308 7.54201 1.99301 1.54315 6.07047 1.99761 1.92096 5.94503 2.00215 2.30065 5.81961 2.0067 2.68189 5.69302 1.98981 0.949626 4.10709 1.9966 1.33534 4.01258 2.00347 1.72368 3.91802 2.01043 2.1145 3.82224 1.98442 0.545245 2.07305 1.99538 0.937561 2.0235 2.00614 1.33417 1.97465 2.01674 1.7351 1.92416 0.41576 0.16598 2.12348 0.410311 0.571918 4.20221 0.406982 1.17136 6.19661 0.403601 1.88476 8.11832 0.805154 0.169986 2.12289 0.803453 0.574587 4.20154 0.802312 1.17312 6.19619 0.801195 1.88568 8.11799 1.19485 0.169986 2.12289 1.19655 0.574587 4.20154 1.19769 1.17312 6.19619 1.19881 1.88568 8.11799 1.58424 0.16598 2.12348 1.58969 0.571918 4.20221 1.59302 1.17136 6.19661 1.5964 1.88476 8.11832 1.61636 2.14935 1.87027 1.61091 2.51298 3.72109 1.60681 3.06763 5.56205 1.60342 3.74856 7.39411 1.20539 2.15348 1.86975 1.20367 2.51586 3.72035 1.20227 3.06932 5.56125 1.20114 3.74944 7.39369 0.794611 2.15348 1.86975 0.796335 2.51586 3.72035 0.797733 3.06932 5.56125 0.798865 3.74944 7.39369 0.383639 2.14935 1.87027 0.389095 2.51298 3.72109 0.393187 3.06763 5.56205 0.396584 3.74856 7.39411 0.4 0.4 0 0.8 0.4 0 1.2 0.4 0 1.6 0.4 0 0.4 0.8 0 0.8 0.8 0 1.2 0.8 0 1.6 0.8 0 0.4 1.2 0 0.8 1.2 0 1.2 1.2 0 1.6 1.2 0 0.4 1.6 0 0.8 1.6 0 1.2 1.6 0 1.6 1.6 0 0.399822 4.13049 9.3835 0.799951 4.13021 9.38338 1.20005 4.13021 9.38338 1.60018 4.13049 9.3835 0.400052 3.75948 9.53442 0.800014 3.75926 9.53435 1.19999 3.75926 9.53435 1.59995 3.75948 9.53442 0.400356 3.38885 9.68457 0.800126 3.38867 9.68462 1.19987 3.38867 9.68462 1.59964 3.38885 9.68457 0.400613 3.01908 9.83511 0.800198 3.01885 9.83522 1.1998 3.01885 9.83522 1.59939 3.01908 9.83511 0.402148 2.25557 7.97282 0.800717 2.25655 7.97259 1.19928 2.25655 7.97259 1.59785 2.25557 7.97282 0.400793 2.62783 7.82886 0.800262 2.62877 7.82855 1.19974 2.62877 7.82855 1.59921 2.62783 7.82886 0.399452 3.00109 7.6853 0.799815 3.00199 7.68486 1.20018 3.00199 7.68486 1.60055 3.00109 7.6853 0.398077 3.37483 7.54079 0.799352 3.3757 7.54027 1.20065 3.3757 7.54027 1.60192 3.37483 7.54079 0.404167 1.54676 6.06962 0.801388 1.54852 6.06922 1.19861 1.54852 6.06922 1.59583 1.54676 6.06962 0.401414 1.92446 5.94394 0.800472 1.92622 5.94341 1.19953 1.92622 5.94341 1.59859 1.92446 5.94394 0.398723 2.30404 5.81824 0.799572 2.30574 5.81752 1.20043 2.30574 5.81752 1.60128 2.30404 5.81824 0.395996 2.6852 5.69138 0.798664 2.68685 5.69054 1.20134 2.68685 5.69054 1.604 2.6852 5.69138 0.406187 0.955152 4.1066 0.802073 0.957946 4.1061 1.19793 0.957946 4.1061 1.59381 0.955152 4.1066 0.402028 1.34078 4.01142 0.800674 1.34359 4.0108 1.19933 1.34359 4.0108 1.59797 1.34078 4.01142 0.397832 1.72907 3.91615 0.799261 1.73189 3.91532 1.20074 1.73189 3.91532 1.60217 1.72907 3.91615 0.393543 2.11992 3.81961 0.797813 2.12275 3.81864 1.20219 2.12275 3.81864 1.60646 2.11992 3.81961 0.409133 0.553662 2.07087 0.803012 0.557524 2.0701 1.19699 0.557524 2.0701 1.59087 0.553662 2.07087 0.402615 0.945847 2.02209 0.800856 0.949716 2.02148 1.19914 0.949716 2.02148 1.59738 0.945847 2.02209 0.396269 1.34241 1.97406 0.798753 1.34631 1.97371 1.20125 1.34631 1.97371 1.60373 1.34241 1.97406 0.389986 1.7435 1.92445 0.796679 1.74747 1.92425 1.20332 1.74747 1.92425 1.61001 1.7435 1.92445 </DataArray>
</Points>
<Cells>
<DataArray Name="connectivity" format="ascii" type="Int32">0 12 68 11 44 148 152 91 44 148 152 91 45 149 153 95 45 149 153 95 46 150 154 99 46 150 154 99 47 151 155 103 47 151 155 103 4 28 72 27 12 13 69 68 148 144 156 152 148 144 156 152 149 145 157 153 149 145 157 153 150 146 158 154 150 146 158 154 151 147 159 155 151 147 159 155 28 29 73 72 13 14 70 69 144 140 160 156 144 140 160 156 145 141 161 157 145 141 161 157 146 142 162 158 146 142 162 158 147 143 163 159 147 143 163 159 29 30 74 73 14 15 71 70 140 136 164 160 140 136 164 160 141 137 165 161 141 137 165 161 142 138 166 162 142 138 166 162 143 139 167 163 143 139 167 163 30 31 75 74 15 2 19 71 136 52 119 164 136 52 119 164 137 53 115 165 137 53 115 165 138 54 111 166 138 54 111 166 139 55 107 167 139 55 107 167 31 6 35 75 11 68 64 10 91 152 168 90 91 152 168 90 95 153 169 94 95 153 169 94 99 154 170 98 99 154 170 98 103 155 171 102 103 155 171 102 27 72 76 26 68 69 65 64 152 156 172 168 152 156 172 168 153 157 173 169 153 157 173 169 154 158 174 170 154 158 174 170 155 159 175 171 155 159 175 171 72 73 77 76 69 70 66 65 156 160 176 172 156 160 176 172 157 161 177 173 157 161 177 173 158 162 178 174 158 162 178 174 159 163 179 175 159 163 179 175 73 74 78 77 70 71 67 66 160 164 180 176 160 164 180 176 161 165 181 177 161 165 181 177 162 166 182 178 162 166 182 178 163 167 183 179 163 167 183 179 74 75 79 78 71 19 18 67 164 119 118 180 164 119 118 180 165 115 114 181 165 115 114 181 166 111 110 182 166 111 110 182 167 107 106 183 167 107 106 183 75 35 34 79 10 64 60 9 90 168 184 89 90 168 184 89 94 169 185 93 94 169 185 93 98 170 186 97 98 170 186 97 102 171 187 101 102 171 187 101 26 76 80 25 64 65 61 60 168 172 188 184 168 172 188 184 169 173 189 185 169 173 189 185 170 174 190 186 170 174 190 186 171 175 191 187 171 175 191 187 76 77 81 80 65 66 62 61 172 176 192 188 172 176 192 188 173 177 193 189 173 177 193 189 174 178 194 190 174 178 194 190 175 179 195 191 175 179 195 191 77 78 82 81 66 67 63 62 176 180 196 192 176 180 196 192 177 181 197 193 177 181 197 193 178 182 198 194 178 182 198 194 179 183 199 195 179 183 199 195 78 79 83 82 67 18 17 63 180 118 117 196 180 118 117 196 181 114 113 197 181 114 113 197 182 110 109 198 182 110 109 198 183 106 105 199 183 106 105 199 79 34 33 83 9 60 56 8 89 184 200 88 89 184 200 88 93 185 201 92 93 185 201 92 97 186 202 96 97 186 202 96 101 187 203 100 101 187 203 100 25 80 84 24 60 61 57 56 184 188 204 200 184 188 204 200 185 189 205 201 185 189 205 201 186 190 206 202 186 190 206 202 187 191 207 203 187 191 207 203 80 81 85 84 61 62 58 57 188 192 208 204 188 192 208 204 189 193 209 205 189 193 209 205 190 194 210 206 190 194 210 206 191 195 211 207 191 195 211 207 81 82 86 85 62 63 59 58 192 196 212 208 192 196 212 208 193 197 213 209 193 197 213 209 194 198 214 210 194 198 214 210 195 199 215 211 195 199 215 211 82 83 87 86 63 17 16 59 196 117 116 212 196 117 116 212 197 113 112 213 197 113 112 213 198 109 108 214 198 109 108 214 199 105 104 215 199 105 104 215 83 33 32 87 8 56 20 1 88 200 120 40 88 200 120 40 92 201 121 41 92 201 121 41 96 202 122 42 96 202 122 42 100 203 123 43 100 203 123 43 24 84 36 5 56 57 21 20 200 204 124 120 200 204 124 120 201 205 125 121 201 205 125 121 202 206 126 122 202 206 126 122 203 207 127 123 203 207 127 123 84 85 37 36 57 58 22 21 204 208 128 124 204 208 128 124 205 209 129 125 205 209 129 125 206 210 130 126 206 210 130 126 207 211 131 127 207 211 131 127 85 86 38 37 58 59 23 22 208 212 132 128 208 212 132 128 209 213 133 129 209 213 133 129 210 214 134 130 210 214 134 130 211 215 135 131 211 215 135 131 86 87 39 38 59 16 3 23 212 116 48 132 212 116 48 132 213 112 49 133 213 112 49 133 214 108 50 134 214 108 50 134 215 104 51 135 215 104 51 135 87 32 7 39 </DataArray>
<DataArray Name="offsets" format="ascii" type="Int32">8 16 24 32 40 48 56 64 72 80 88 96 104 112 120 128 136 144 152 160 168 176 184 192 200 208 216 224 232 240 248 256 264 272 280 288 296 304 312 320 328 336 344 352 360 368 376 384 392 400 408 416 424 432 440 448 456 464 472 480 488 496 504 512 520 528 536 544 552 560 568 576 584 592 600 608 616 624 632 640 648 656 664 672 680 688 696 704 712 720 728 736 744 752 760 768 776 784 792 800 808 816 824 832 840 848 856 864 872 880 888 896 904 912 920 928 936 944 952 960 968 976 984 992 1000 </DataArray>
<DataArray Name="types" format="ascii" type="UInt8">12 12 12 12 12 12 12 12 12 12 12 12 12 12 12 12 12 12 12 12 12 12 12 12 12 12 12 12 12 12 12 12 12 12 12 12 12 12 12 12 12 12 12 12 12 12 12 12 12 12 12 12 12 12 12 12 12 12 12 12 12 12 12 12 12 12 12 12 12 12 12 12 12 12 12 12 12 12 12 12 12 12 12 12 12 12 12 12 12 12 12 12 12 12 12 12 12 12 12 12 12 12 12 12 12 12 12 12 12 12 12 12 12 12 12 12 12 12 12 12 12 12 12 12 12 </DataArray>
</Cells>
<PointData>
<DataArray Name="Uz 0" NumberOfComponents="1" format="ascii" type="Float32">-1117.77 -1321.92 -1269.27 -4649.14 -900.534 3148.31 3021.16 1728.61 5177.56 5777.18 549.221 352.961 -965.603 3378.69 335.17 379.444 -1377.86 3630.31 299.013 -4008.15 -4527.02 137.875 -312.095 -1028.18 4168.07 -1013.65 1663.57 4222.31 5497.37 5493.51 -2988.42 -673.148 1481.72 1777.32 4339.9 152.494 1733.64 -59.3554 1174.97 1198.98 2234.47 -882.996 529.895 463.092 -1041.72 2393.19 168.814 805.039 157.951 1193.52 1140.5 -387.779 -724.351 1475.17 377.964 750.711 -2572.34 3323.16 965.169 175.516 880.471 -129.652 1517.77 -409.411 -942.293 1693.11 501.637 -591.061 -2644.95 3395.77 1392.68 -695.95 409496 -3.78643 397688 246125 540971 531696 359691 24247 87545.1 507890 534980 205635 35422.7 5825.45 51829.4 537966 715.269 715.269 522435 98334.7 285999 259189 455490 597610 603171 583071 455490 278396 99407.9 96161.7 478934 290345 104162 602678 478934 242782 91132.6 568780 426427 242782 43652.2 43652.2 31459.2 20015.1 8679.54 8679.54 630321 634724 640478 640478 641575 663679 659575 659575 650410 641577 522283 522283 511650 500854 489830 489830 312939 304399 295950 295950 282945 109741 108340 108340 107460 106693 1.18146e+06 396371 1.15417e+06 1.06052e+06 1.43952e+06 1.41558e+06 1.18245e+06 393133 673336 1.41505e+06 1.4236e+06 923334 407862 388425 455282 1.43763e+06 415724 415724 1.40487e+06 669825 1.16918e+06 1.06696e+06 1.40484e+06 1.59166e+06 1.60692e+06 1.55747e+06 1.40484e+06 1.13817e+06 699311 618152 1.48425e+06 1.18752e+06 739751 1.61462e+06 1.48425e+06 1.02382e+06 608857 1.53362e+06 1.33633e+06 1.02382e+06 431109 431109 422032 414207 407727 407727 1.61541e+06 1.62475e+06 1.63589e+06 1.63589e+06 1.64186e+06 1.73632e+06 1.72133e+06 1.72133e+06 1.70079e+06 1.68071e+06 1.57843e+06 1.57843e+06 1.54495e+06 1.51187e+06 1.47802e+06 1.47802e+06 1.24777e+06 1.21264e+06 1.17688e+06 1.17688e+06 1.13224e+06 745395 708933 708933 682456 654075 </DataArray>
<DataArray Name="Uz 1" NumberOfComponents="1" format="ascii" type="Float32">4570.86 4496.46 4700.6 -4001.46 360.251 -3226.13 4190.48 326.135 6901.6 3152.99 -895.852 -768.706 523.847 3487.23 -1234.77 1873.01 278.323 3605.27 -1352.82 -3947.61 -2870.84 -3760.47 1303.2 691.167 2379.66 5111.94 48.2764 2640.8 5359.63 -1918.42 -2647.2 -544.799 2024.62 3269.9 3998.67 -784.979 510.542 -382.169 1410.83 2136.45 1202.82 1109.6 241.875 888.382 90.3241 2150.47 -798.996 546.435 512.998 -710.94 2062.41 1138.6 11.4194 373.392 377.427 0.107515 -606.098 -1392.85 2143.67 575.303 554.126 -3060.82 3811.64 1160.23 -69.6877 10.7272 740.092 1341.88 -621.665 -2675.06 3425.87 1446.77 37953.9 409496 -3.78643 402137 538071 76600.4 479273 14509.8 246125 540971 531696 359691 24247 50725.4 50725.4 537966 1909.63 523896 523896 97238.5 278396 473248 444103 590958 597610 473248 444103 269614 98334.7 103906 604343 477650 290345 103906 604343 427808 241553 91132.6 568780 427808 44814.9 30291.6 30291.6 20015.1 10019.3 632315 632315 634724 638527 643639 643639 663679 657714 652246 652246 641577 520806 513193 513193 500854 488265 314213 314213 304399 294592 284324 284324 109741 108583 107279 107279 106693 420484 1.18146e+06 396371 1.30467e+06 1.43178e+06 564144 1.34784e+06 386626 1.06052e+06 1.43952e+06 1.41558e+06 1.18245e+06 393133 447603 447603 1.43763e+06 423637 1.40634e+06 1.40634e+06 642918 1.13817e+06 1.46289e+06 1.37253e+06 1.57521e+06 1.59166e+06 1.46289e+06 1.37253e+06 1.10396e+06 669825 737084 1.61657e+06 1.48214e+06 1.18752e+06 737084 1.61657e+06 1.338e+06 1.02105e+06 608857 1.53362e+06 1.338e+06 439990 413133 413133 414207 416862 1.61749e+06 1.61749e+06 1.62475e+06 1.63383e+06 1.644e+06 1.644e+06 1.73632e+06 1.71927e+06 1.70281e+06 1.70281e+06 1.68071e+06 1.57629e+06 1.54716e+06 1.54716e+06 1.51187e+06 1.47598e+06 1.25013e+06 1.25013e+06 1.21264e+06 1.17395e+06 1.13537e+06 1.13537e+06 745395 712593 678751 678751 654075 </DataArray>
<DataArray Name="Uz 2" NumberOfComponents="1" format="ascii" type="Float32">4647.96 -1192.17 -2925.1 -3524.72 1703.24 1899.5 3218.06 -1126.23 6253.92 1892.21 5478.58 -1938.03 1926.32 1917.29 -1123.64 3376.1 1974.13 1953.44 -4145.89 -4142.04 -1289.33 -2005.62 -2816.59 2365.12 660.308 3357.09 5878.49 1213.6 5299.08 -3411.54 -130.246 -425.848 1896.27 4763.01 3823.2 -1524.58 176.501 840.932 -2471.72 2876.06 148.658 821.579 56.7342 1294.74 1261.15 1182.66 1064.56 286.911 838.477 210.975 -1909.86 2660.68 739.4 372.855 1483.6 -732.777 1356.92 -214.35 -238.527 989.346 196.693 -766.952 -1975.38 2726.2 820.507 249.182 -2627.6 3378.42 1372.48 -641.857 -2825.31 3576.13 397688 37953.9 87545.1 507890 534980 205635 35422.7 5825.45 402137 538071 76600.4 479273 14509.8 51829.4 539679 539679 1909.63 522435 99407.9 96161.7 269614 465154 603171 583071 590958 465154 285999 259189 97238.5 291526 104162 602678 477650 291526 91025 570328 426427 241553 91025 570328 44814.9 31459.2 18778.1 18778.1 10019.3 630321 636706 636706 638527 641575 665544 665544 657714 650410 643391 643391 520806 511650 502453 502453 488265 312939 305719 305719 294592 282945 109564 109564 108583 107460 106430 106430 1.15417e+06 420484 673336 1.41505e+06 1.4236e+06 923334 407862 388425 1.30467e+06 1.43178e+06 564144 1.34784e+06 386626 455282 1.43955e+06 1.43955e+06 423637 1.40487e+06 699311 618152 1.10396e+06 1.43475e+06 1.60692e+06 1.55747e+06 1.57521e+06 1.43475e+06 1.16918e+06 1.06696e+06 642918 1.18973e+06 739751 1.61462e+06 1.48214e+06 1.18973e+06 605575 1.53522e+06 1.33633e+06 1.02105e+06 605575 1.53522e+06 439990 422032 405228 405228 416862 1.61541e+06 1.62679e+06 1.62679e+06 1.63383e+06 1.64186e+06 1.73839e+06 1.73839e+06 1.71927e+06 1.70079e+06 1.68271e+06 1.68271e+06 1.57629e+06 1.54495e+06 1.51392e+06 1.51392e+06 1.47598e+06 1.24777e+06 1.21529e+06 1.21529e+06 1.17395e+06 1.13224e+06 741791 741791 712593 682456 650629 650629 </DataArray>
</PointData>
<CellData/>
</Piece>
</UnstructuredGrid>
</VTKFile>
