<?xml version="1.0" ?>
<VTKFile byte_order="LittleEndian" type="UnstructuredGrid" version="0.1">
<UnstructuredGrid>
<Piece NumberOfCells="8" NumberOfPoints="27">
<Points>
<DataArray Name="vertices" NumberOfComponents="3" format="ascii" type="Float32">3.60029e-05 1.07537 10.0964 0 0 0 -0.000187087 3.05042 9.78227 0 2 0 1.99996 1.07537 10.0964 2 0 0 2.00019 3.05042 9.78227 2 2 0 0.00902012 0.33977 5.10625 9.94289e-06 2.06203 9.93964 -0.00928985 2.3286 4.8789 0 1 0 1.99098 0.33977 5.10625 1.99999 2.06203 9.93964 2.00929 2.3286 4.8789 2 1 0 1 0 0 1 1.07427 10.0972 1 2 0 1 3.04921 9.7815 -0.000154763 1.33038 4.99253 2.00015 1.33038 4.99253 1 0.344548 5.10558 1 2.33342 4.87863 1 1 0 1 2.06123 9.93962 1 1.33507 4.99207 </DataArray>
</Points>
<Cells>
<DataArray Name="connectivity" format="ascii" type="Int32">0 9 20 8 17 25 26 22 17 25 26 22 4 13 21 12 9 2 10 20 25 19 23 26 25 19 23 26 13 6 14 21 8 20 11 1 22 26 24 16 22 26 24 16 12 21 15 5 20 10 3 11 26 23 18 24 26 23 18 24 21 14 7 15 </DataArray>
<DataArray Name="offsets" format="ascii" type="Int32">8 16 24 32 40 48 56 64 </DataArray>
<DataArray Name="types" format="ascii" type="UInt8">12 12 12 12 12 12 12 12 </DataArray>
</Cells>
<PointData>
<DataArray Name="Uz 0" NumberOfComponents="1" format="ascii" type="Float32">-756.082 -353.874 -719.267 -1.0972 1638.7 11.7776 3.92588 1635.08 2.35553 72931.8 17886.4 67497.3 86254.7 56758.3 24142.2 16282.2 62226.4 24676.3 591204 378910 582221 657864 523575 379936 382271 539647 384249 </DataArray>
<DataArray Name="Uz 1" NumberOfComponents="1" format="ascii" type="Float32">351.003 767.859 365.652 -1101.84 8.94895 3.92588 3.92588 2.35553 2.35553 31108.5 72931.8 17886.4 54627.8 86254.7 33870.2 80306.7 62713.6 97177.4 385336 591204 378910 503402 657864 390799 645193 551953 708383 </DataArray>
<DataArray Name="Uz 2" NumberOfComponents="1" format="ascii" type="Float32">731.044 -339.225 -1630.85 -3.92588 1109.69 3.92588 -1630.37 2.35553 1.30863 67497.3 31108.5 56758.3 24142.2 54627.8 88147.9 62226.4 60282.3 65949.9 582221 385336 523575 379936 503402 656937 539647 527601 557099 </DataArray>
</PointData>
<CellData/>
</Piece>
</UnstructuredGrid>
</VTKFile>
