<?xml version="1.0" ?>
<VTKFile byte_order="LittleEndian" type="UnstructuredGrid" version="0.1">
<UnstructuredGrid>
<Piece NumberOfCells="8" NumberOfPoints="27">
<Points>
<DataArray Name="vertices" NumberOfComponents="3" format="ascii" type="Float32">2.88582e-05 1.59536 10.0986 0 0 0 -0.000373763 3.54089 9.63606 0 2 0 1.99997 1.59536 10.0986 2 0 0 2.00037 3.54089 9.63606 2 2 0 0.0132091 0.506767 5.15148 1.24711e-05 2.56688 9.86796 -0.0138285 2.48238 4.81583 0 1 0 1.98679 0.506767 5.15148 1.99999 2.56688 9.86796 2.01383 2.48238 4.81583 2 1 0 1 0 0 1 1.59377 10.0998 1 2 0 1 3.53907 9.63494 -0.0003512 1.4889 4.98355 2.00035 1.4889 4.98355 1 0.513758 5.15014 1 2.48948 4.81509 1 1 0 1 2.5657 9.86793 1 1.49578 4.98255 </DataArray>
</Points>
<Cells>
<DataArray Name="connectivity" format="ascii" type="Int32">0 9 20 8 17 25 26 22 17 25 26 22 4 13 21 12 9 2 10 20 25 19 23 26 25 19 23 26 13 6 14 21 8 20 11 1 22 26 24 16 22 26 24 16 12 21 15 5 20 10 3 11 26 23 18 24 26 23 18 24 21 14 7 15 </DataArray>
<DataArray Name="offsets" format="ascii" type="Int32">8 16 24 32 40 48 56 64 </DataArray>
<DataArray Name="types" format="ascii" type="UInt8">12 12 12 12 12 12 12 12 </DataArray>
</Cells>
<PointData>
<DataArray Name="Uz 0" NumberOfComponents="1" format="ascii" type="Float32">-1624.54 -776.642 -1562.15 30.4505 2598.91 39.6219 13.2073 2389.34 7.92437 157922 43743.9 147451 187428 124756 52949 41721.8 135276 54115.6 867990 558486 848585 960263 774374 562237 562682 789577 568566 </DataArray>
<DataArray Name="Uz 1" NumberOfComponents="1" format="ascii" type="Float32">766.981 1664.17 816.264 -1433.79 -4.03597 13.2073 13.2073 7.92437 7.92437 63721.9 157922 43743.9 117619 187428 68277.9 175644 137940 211084 572510 867990 558486 730780 960263 581294 937770 816469 1.03265e+06 </DataArray>
<DataArray Name="Uz 2" NumberOfComponents="1" format="ascii" type="Float32">1601.77 -727.359 -2572.49 -13.2073 1460.2 13.2073 -2373.49 7.92437 4.40243 147451 63721.9 124756 52949 117619 190411 135276 129573 143339 848585 572510 774374 562237 730780 963144 789577 763830 814532 </DataArray>
</PointData>
<CellData/>
</Piece>
</UnstructuredGrid>
</VTKFile>
