<?xml version="1.0" ?>
<VTKFile byte_order="LittleEndian" type="UnstructuredGrid" version="0.1">
<UnstructuredGrid>
<Piece NumberOfCells="8" NumberOfPoints="27">
<Points>
<DataArray Name="vertices" NumberOfComponents="3" format="ascii" type="Float32">2.88582e-05 1.59536 10.0986 0 0 0 -0.000373763 3.54089 9.63606 0 2 0 1.99997 1.59536 10.0986 2 0 0 2.00037 3.54089 9.63606 2 2 0 0.0132091 0.506767 5.15148 1.24711e-05 2.56688 9.86796 -0.0138285 2.48238 4.81583 0 1 0 1.98679 0.506767 5.15148 1.99999 2.56688 9.86796 2.01383 2.48238 4.81583 2 1 0 1 0 0 1 1.59377 10.0998 1 2 0 1 3.53907 9.63494 -0.0003512 1.4889 4.98355 2.00035 1.4889 4.98355 1 0.513758 5.15014 1 2.48948 4.81509 1 1 0 1 2.5657 9.86793 1 1.49578 4.98255 </DataArray>
</Points>
<Cells>
<DataArray Name="connectivity" format="ascii" type="Int32">0 9 20 8 17 25 26 22 17 25 26 22 4 13 21 12 9 2 10 20 25 19 23 26 25 19 23 26 13 6 14 21 8 20 11 1 22 26 24 16 22 26 24 16 12 21 15 5 20 10 3 11 26 23 18 24 26 23 18 24 21 14 7 15 </DataArray>
<DataArray Name="offsets" format="ascii" type="Int32">8 16 24 32 40 48 56 64 </DataArray>
<DataArray Name="types" format="ascii" type="UInt8">12 12 12 12 12 12 12 12 </DataArray>
</Cells>
<PointData>
<DataArray Name="Uz 0" NumberOfComponents="1" format="ascii" type="Float32">-5586.06 0 5610.23 -2450.29 -1810.77 0 0 -695.86 0 2342.86 0 13474.8 10114 9503.39 0 0 9294.11 0 67638.6 67743 66026.7 65025.5 65259.3 66803.3 68447.7 65597.3 66956 </DataArray>
<DataArray Name="Uz 1" NumberOfComponents="1" format="ascii" type="Float32">0 5586.06 0 1814.99 2450.29 0 -2.48595e-11 -6.36646e-13 8.40373e-11 0 2342.86 0 6278.15 10114 0 12604.9 9774.99 11940.6 65410.2 67638.6 67743 67866.4 65025.5 65305.6 64997.8 64311.7 63972.5 </DataArray>
<DataArray Name="Uz 2" NumberOfComponents="1" format="ascii" type="Float32">-5610.23 0 1810.77 0 -1814.99 -1.0732e-10 695.86 5.72982e-12 2.12215e-12 13474.8 0 9503.39 0 6278.15 7582.68 9294.11 8821.48 10271.4 66026.7 65410.2 65259.3 66803.3 67866.4 65088.5 65597.3 66953.6 65140.6 </DataArray>
</PointData>
<CellData/>
</Piece>
</UnstructuredGrid>
</VTKFile>
