<?xml version="1.0" ?>
<VTKFile byte_order="LittleEndian" type="UnstructuredGrid" version="0.1">
<UnstructuredGrid>
<Piece NumberOfCells="8" NumberOfPoints="27">
<Points>
<DataArray Name="vertices" NumberOfComponents="3" format="ascii" type="Float32">3.60029e-05 1.07537 10.0964 0 0 0 -0.000187087 3.05042 9.78227 0 2 0 1.99996 1.07537 10.0964 2 0 0 2.00019 3.05042 9.78227 2 2 0 0.00902012 0.33977 5.10625 9.94289e-06 2.06203 9.93964 -0.00928985 2.3286 4.8789 0 1 0 1.99098 0.33977 5.10625 1.99999 2.06203 9.93964 2.00929 2.3286 4.8789 2 1 0 1 0 0 1 1.07427 10.0972 1 2 0 1 3.04921 9.7815 -0.000154763 1.33038 4.99253 2.00015 1.33038 4.99253 1 0.344548 5.10558 1 2.33342 4.87863 1 1 0 1 2.06123 9.93962 1 1.33507 4.99207 </DataArray>
</Points>
<Cells>
<DataArray Name="connectivity" format="ascii" type="Int32">0 9 20 8 17 25 26 22 17 25 26 22 4 13 21 12 9 2 10 20 25 19 23 26 25 19 23 26 13 6 14 21 8 20 11 1 22 26 24 16 22 26 24 16 12 21 15 5 20 10 3 11 26 23 18 24 26 23 18 24 21 14 7 15 </DataArray>
<DataArray Name="offsets" format="ascii" type="Int32">8 16 24 32 40 48 56 64 </DataArray>
<DataArray Name="types" format="ascii" type="UInt8">12 12 12 12 12 12 12 12 </DataArray>
</Cells>
<PointData>
<DataArray Name="Uz 0" NumberOfComponents="1" format="ascii" type="Float32">-0.000561473 0 0.000563084 -0.000246526 -0.000182317 0 0 -7.03591e-05 0 -2.15868e-05 0 0.00110003 0.000689638 0.000709566 0 0 0.000631842 0 0.00680481 0.0067417 0.00669547 0.00658613 0.00661859 0.00668815 0.00679769 0.00662062 0.00670284 </DataArray>
<DataArray Name="Uz 1" NumberOfComponents="1" format="ascii" type="Float32">0 0.000561473 0 0.00018262 0.000246526 0 -3.61401e-18 4.87891e-19 -4.88975e-18 0 -2.15868e-05 0 0.000363049 0.000689638 0 0.000937477 0.000692225 0.000814127 0.00658399 0.00680481 0.0067417 0.00679677 0.00658613 0.00658531 0.00658412 0.0065319 0.00649386 </DataArray>
<DataArray Name="Uz 2" NumberOfComponents="1" format="ascii" type="Float32">-0.000563084 0 0.000182317 0 -0.00018262 -5.05961e-18 7.03591e-05 -1.10589e-18 -8.47786e-19 0.00110003 0 0.000709566 0 0.000363049 0.000438822 0.000631842 0.000571667 0.00069827 0.00669547 0.00658399 0.00661859 0.00668815 0.00679677 0.00658978 0.00662062 0.00671261 0.00658043 </DataArray>
</PointData>
<CellData/>
</Piece>
</UnstructuredGrid>
</VTKFile>
