<?xml version="1.0" ?>
<VTKFile byte_order="LittleEndian" type="UnstructuredGrid" version="0.1">
<UnstructuredGrid>
<Piece NumberOfCells="8" NumberOfPoints="27">
<Points>
<DataArray Name="vertices" NumberOfComponents="3" format="ascii" type="Float32">2.97897e-05 0.540164 10.064 0 0 0 -6.72247e-05 2.53381 9.90511 0 2 0 1.99997 0.540164 10.064 2 0 0 2.00007 2.53381 9.90511 2 2 0 0.0045895 0.169927 5.05553 3.18669e-06 1.53655 9.98464 -0.00465604 2.16708 4.94071 0 1 0 1.99541 0.169927 5.05553 2 1.53655 9.98464 2.00466 2.16708 4.94071 2 1 0 1 0 0 1 0.539593 10.0644 1 2 0 1 2.53321 9.90472 -3.84791e-05 1.16659 4.99811 2.00004 1.16659 4.99811 1 0.172356 5.05531 1 2.16952 4.94069 1 1 0 1 1.53614 9.98464 1 1.16897 4.99799 </DataArray>
</Points>
<Cells>
<DataArray Name="connectivity" format="ascii" type="Int32">0 9 20 8 17 25 26 22 17 25 26 22 4 13 21 12 9 2 10 20 25 19 23 26 25 19 23 26 13 6 14 21 8 20 11 1 22 26 24 16 22 26 24 16 12 21 15 5 20 10 3 11 26 23 18 24 26 23 18 24 21 14 7 15 </DataArray>
<DataArray Name="offsets" format="ascii" type="Int32">8 16 24 32 40 48 56 64 </DataArray>
<DataArray Name="types" format="ascii" type="UInt8">12 12 12 12 12 12 12 12 </DataArray>
</Cells>
<PointData>
<DataArray Name="Uz 0" NumberOfComponents="1" format="ascii" type="Float32">-1867.95 0 1870.62 -820.44 -607.144 0 0 -234.874 0 -961.568 0 2774.52 1159.41 1499.42 0 0 1060.27 0 22610.6 22232.1 22427.3 22010.3 22195.5 22189.6 22370 22076.7 22237.1 </DataArray>
<DataArray Name="Uz 1" NumberOfComponents="1" format="ascii" type="Float32">0 1867.95 0 607.667 820.44 0 -2.5769e-12 8.00355e-12 -1.437e-11 0 -961.568 0 300.21 1159.41 0 1979.61 1286.59 1368.64 21968.3 22610.6 22232.1 22495.4 22010.3 22014.9 22006.5 21925.9 21731.7 </DataArray>
<DataArray Name="Uz 2" NumberOfComponents="1" format="ascii" type="Float32">-1870.62 0 607.144 0 -607.667 -9.09495e-13 234.874 -3.50155e-12 1.79815e-11 2774.52 0 1499.42 0 300.21 333.977 1060.27 833.919 1171.72 22427.3 21968.3 22195.5 22189.6 22495.4 22015.4 22076.7 22230.3 21954.9 </DataArray>
</PointData>
<CellData/>
</Piece>
</UnstructuredGrid>
</VTKFile>
