<?xml version="1.0" ?>
<VTKFile byte_order="LittleEndian" type="UnstructuredGrid" version="0.1">
<UnstructuredGrid>
<Piece NumberOfCells="8" NumberOfPoints="27">
<Points>
<DataArray Name="vertices" NumberOfComponents="3" format="ascii" type="Float32">3.60029e-05 1.07537 10.0964 0 0 0 -0.000187087 3.05042 9.78227 0 2 0 1.99996 1.07537 10.0964 2 0 0 2.00019 3.05042 9.78227 2 2 0 0.00902012 0.33977 5.10625 9.94289e-06 2.06203 9.93964 -0.00928985 2.3286 4.8789 0 1 0 1.99098 0.33977 5.10625 1.99999 2.06203 9.93964 2.00929 2.3286 4.8789 2 1 0 1 0 0 1 1.07427 10.0972 1 2 0 1 3.04921 9.7815 -0.000154763 1.33038 4.99253 2.00015 1.33038 4.99253 1 0.344548 5.10558 1 2.33342 4.87863 1 1 0 1 2.06123 9.93962 1 1.33507 4.99207 </DataArray>
</Points>
<Cells>
<DataArray Name="connectivity" format="ascii" type="Int32">0 9 20 8 17 25 26 22 17 25 26 22 4 13 21 12 9 2 10 20 25 19 23 26 25 19 23 26 13 6 14 21 8 20 11 1 22 26 24 16 22 26 24 16 12 21 15 5 20 10 3 11 26 23 18 24 26 23 18 24 21 14 7 15 </DataArray>
<DataArray Name="offsets" format="ascii" type="Int32">8 16 24 32 40 48 56 64 </DataArray>
<DataArray Name="types" format="ascii" type="UInt8">12 12 12 12 12 12 12 12 </DataArray>
</Cells>
<PointData>
<DataArray Name="Uz 0" NumberOfComponents="1" format="ascii" type="Float32">-2.49568 -2.46786 -2.47392 -2.48116 -2.51177 -2.49626 -2.4583 -2.48352 -2.49608 0.496626 0.5 0.497058 0.495843 0.496825 0.5 0.5 0.497728 0.5 -1.07839 -1 -1.07868 -1.10472 -1.07582 -1 -1 -1.09094 -1 </DataArray>
<DataArray Name="Uz 1" NumberOfComponents="1" format="ascii" type="Float32">-2.5247 -2.49567 -2.46786 -2.46551 -2.48109 -2.53395 -2.46638 -2.5187 -2.47828 0.5 0.496706 0.5 0.499424 0.495841 0.5 0.495993 0.496208 0.494989 -1 -1.07839 -1 -1.07575 -1.10472 -1 -1.10541 -1.09081 -1.12629 </DataArray>
<DataArray Name="Uz 2" NumberOfComponents="1" format="ascii" type="Float32">-2.47402 -2.5247 -2.51788 -2.49626 -2.45942 -2.49597 -2.49084 -2.45555 -2.48617 0.497135 0.5 0.496914 0.5 0.499387 0.495655 0.497802 0.499343 0.497528 -1.07868 -1 -1.07582 -1 -1.07575 -1.10507 -1.09094 -1.09075 -1.10087 </DataArray>
</PointData>
<CellData/>
</Piece>
</UnstructuredGrid>
</VTKFile>
