<?xml version="1.0" ?>
<VTKFile byte_order="LittleEndian" type="UnstructuredGrid" version="0.1">
<UnstructuredGrid>
<Piece NumberOfCells="8" NumberOfPoints="27">
<Points>
<DataArray Name="vertices" NumberOfComponents="3" format="ascii" type="Float32">2.97897e-05 0.540164 10.064 0 0 0 -6.72247e-05 2.53381 9.90511 0 2 0 1.99997 0.540164 10.064 2 0 0 2.00007 2.53381 9.90511 2 2 0 0.0045895 0.169927 5.05553 3.18669e-06 1.53655 9.98464 -0.00465604 2.16708 4.94071 0 1 0 1.99541 0.169927 5.05553 2 1.53655 9.98464 2.00466 2.16708 4.94071 2 1 0 1 0 0 1 0.539593 10.0644 1 2 0 1 2.53321 9.90472 -3.84791e-05 1.16659 4.99811 2.00004 1.16659 4.99811 1 0.172356 5.05531 1 2.16952 4.94069 1 1 0 1 1.53614 9.98464 1 1.16897 4.99799 </DataArray>
</Points>
<Cells>
<DataArray Name="connectivity" format="ascii" type="Int32">0 9 20 8 17 25 26 22 17 25 26 22 4 13 21 12 9 2 10 20 25 19 23 26 25 19 23 26 13 6 14 21 8 20 11 1 22 26 24 16 22 26 24 16 12 21 15 5 20 10 3 11 26 23 18 24 26 23 18 24 21 14 7 15 </DataArray>
<DataArray Name="offsets" format="ascii" type="Int32">8 16 24 32 40 48 56 64 </DataArray>
<DataArray Name="types" format="ascii" type="UInt8">12 12 12 12 12 12 12 12 </DataArray>
</Cells>
<PointData>
<DataArray Name="Uz 0" NumberOfComponents="1" format="ascii" type="Float32">-0.997739 -0.997691 -0.997725 -1.00004 -1 -1.00004 -1.00001 -1.00001 -1.00001 -0.234206 -0.183419 -0.233334 -0.251083 -0.217487 -0.183297 -0.184273 -0.223972 -0.184248 -2.50166 -2.48471 -2.49061 -2.49521 -2.50881 -2.49905 -2.47992 -2.49489 -2.49901 </DataArray>
<DataArray Name="Uz 1" NumberOfComponents="1" format="ascii" type="Float32">-1.00231 -1.0023 -1.00235 -0.99999 -0.999985 -1.00001 -1.00001 -1.00001 -1.00001 -0.18413 -0.234206 -0.183419 -0.217044 -0.251083 -0.185218 -0.249 -0.224211 -0.263527 -2.51341 -2.50164 -2.48471 -2.48541 -2.49518 -2.51812 -2.48769 -2.5127 -2.49447 </DataArray>
<DataArray Name="Uz 2" NumberOfComponents="1" format="ascii" type="Float32">-1.00231 -0.997724 -1.00002 -0.999987 -1.00004 -1.00001 -1.00001 -1.00001 -1 -0.233334 -0.18413 -0.217487 -0.183297 -0.217044 -0.250176 -0.223972 -0.223674 -0.228401 -2.49064 -2.51341 -2.5119 -2.49905 -2.48233 -2.50273 -2.49859 -2.48075 -2.49648 </DataArray>
</PointData>
<CellData/>
</Piece>
</UnstructuredGrid>
</VTKFile>
